;
;   File g5dpncore_petim.itp  was generated
;   By user: sairam (1000)
;   On host: sairam
;   At date: Tue. January  2 16:47:30 2025
;
;   This is a standalone topology file
;
;   Created by:
;   ParmEd:       amb2gro_top_gro.py, VERSION 3.4.1
;   Executable:   amb2gro_top_gro.py
;   Library dir:  /usr/local/gromacs/share/gromacs/top
;   Command line:
;     ./amb2gro_top_gro.py -p g5dpncore_petim.prmtop -c g5dpncore_petim.inpcrd -t g5dpncore_petim.itp -g g5dpncore_petim.gro -b g5dpncore_petim.pdb
;

;[ defaults ]
;; nbfunc        comb-rule       gen-pairs       fudgeLJ fudgeQQ
;1               2               yes             0.5          0.83333333  
;
;[ atomtypes ]
;; name    at.num    mass    charge ptype  sigma      epsilon
;n4             7  14.010000  0.00000000  A     0.32499985        0.71128
;c3             6  12.010000  0.00000000  A     0.33996695      0.4577296
;hx             1   1.008000  0.00000000  A     0.19599772      0.0656888
;hc             1   1.008000  0.00000000  A     0.26495328      0.0656888
;h1             1   1.008000  0.00000000  A      0.2471353      0.0656888
;hn             1   1.008000  0.00000000  A     0.10690785      0.0656888
;os             8  16.000000  0.00000000  A     0.30000123        0.71128


[ moleculetype ]
; Name            nrexcl
g5dpncore_petim          3

[ atoms ]
;   nr       type  resnr residue  atom   cgnr    charge       mass  typeB    chargeB      massB
; residue    1 aaa rtp aaa q 1.0
    1         n4      1    aaa     N1      1 -0.24795800  14.010000   ; qtot -0.247958
    2         c3      1    aaa     C1      2 0.15727100  12.010000   ; qtot -0.090687
    3         hx      1    aaa     H1      3 0.05072400   1.008000   ; qtot -0.039963
    4         hx      1    aaa     H2      4 0.05072400   1.008000   ; qtot 0.010761
    5         c3      1    aaa     C2      5 0.15727100  12.010000   ; qtot 0.168032
    6         hx      1    aaa     H3      6 0.05072400   1.008000   ; qtot 0.218756
    7         hx      1    aaa     H4      7 0.05072400   1.008000   ; qtot 0.269480
    8         c3      1    aaa     C3      8 0.15727100  12.010000   ; qtot 0.426751
    9         hx      1    aaa     H5      9 0.05072400   1.008000   ; qtot 0.477475
   10         hx      1    aaa     H6     10 0.05072400   1.008000   ; qtot 0.528199
   11         c3      1    aaa     C4     11 0.05437700  12.010000   ; qtot 0.582576
   12         hc      1    aaa     H7     12 0.07708700   1.008000   ; qtot 0.659663
   13         hc      1    aaa     H8     13 0.07708700   1.008000   ; qtot 0.736750
   14         c3      1    aaa     C5     14 0.05437700  12.010000   ; qtot 0.791127
   15         hc      1    aaa     H9     15 0.07708700   1.008000   ; qtot 0.868214
   16         hc      1    aaa    H10     16 0.07708700   1.008000   ; qtot 0.945301
   17         c3      1    aaa     C6     17 0.05437700  12.010000   ; qtot 0.999678
   18         hc      1    aaa    H11     18 0.07708700   1.008000   ; qtot 1.076765
   19         hc      1    aaa    H12     19 0.07708700   1.008000   ; qtot 1.153852
   20         c3      1    aaa     C7     20 -0.74569400  12.010000   ; qtot 0.408158
   21         h1      1    aaa    H13     21 0.30837900   1.008000   ; qtot 0.716537
   22         h1      1    aaa    H14     22 0.30837900   1.008000   ; qtot 1.024916
   23         c3      1    aaa     C8     23 -0.74569400  12.010000   ; qtot 0.279222
   24         h1      1    aaa    H15     24 0.30837900   1.008000   ; qtot 0.587601
   25         h1      1    aaa    H16     25 0.30837900   1.008000   ; qtot 0.895980
   26         c3      1    aaa     C9     26 -0.74569400  12.010000   ; qtot 0.150286
   27         h1      1    aaa    H17     27 0.30837900   1.008000   ; qtot 0.458665
   28         h1      1    aaa    H18     28 0.30837900   1.008000   ; qtot 0.767044
   29         hn      1    aaa    H19     29 0.23295100   1.008000   ; qtot 0.999995
; residue    2 bbb rtp bbb q 1.0
   30         n4      2    bbb     N1     30 0.03726400  14.010000   ; qtot 1.037259
   31         c3      2    bbb     C1     31 -0.07020100  12.010000   ; qtot 0.967058
   32         hx      2    bbb     H1     32 0.12219000   1.008000   ; qtot 1.089248
   33         hx      2    bbb     H2     33 0.12219000   1.008000   ; qtot 1.211438
   34         c3      2    bbb     C2     34 -0.07020100  12.010000   ; qtot 1.141237
   35         hx      2    bbb     H3     35 0.12219000   1.008000   ; qtot 1.263427
   36         hx      2    bbb     H4     36 0.12219000   1.008000   ; qtot 1.385617
   37         c3      2    bbb     C3     37 -0.39007700  12.010000   ; qtot 0.995540
   38         hx      2    bbb     H5     38 0.14940300   1.008000   ; qtot 1.144943
   39         hx      2    bbb     H6     39 0.14940300   1.008000   ; qtot 1.294346
   40         c3      2    bbb     C4     40 0.18057300  12.010000   ; qtot 1.474919
   41         hc      2    bbb     H7     41 0.01788900   1.008000   ; qtot 1.492808
   42         hc      2    bbb     H8     42 0.01788900   1.008000   ; qtot 1.510697
   43         c3      2    bbb     C5     43 -0.11337700  12.010000   ; qtot 1.397320
   44         hc      2    bbb     H9     44 0.09515400   1.008000   ; qtot 1.492474
   45         hc      2    bbb    H10     45 0.09515400   1.008000   ; qtot 1.587628
   46         c3      2    bbb     C6     46 -0.11337700  12.010000   ; qtot 1.474251
   47         hc      2    bbb    H11     47 0.09515400   1.008000   ; qtot 1.569405
   48         hc      2    bbb    H12     48 0.09515400   1.008000   ; qtot 1.664559
   49         c3      2    bbb     C7     49 0.21842400  12.010000   ; qtot 1.882983
   50         h1      2    bbb    H13     50 0.04500300   1.008000   ; qtot 1.927986
   51         h1      2    bbb    H14     51 0.04500300   1.008000   ; qtot 1.972989
   52         c3      2    bbb     C8     52 -0.06455200  12.010000   ; qtot 1.908437
   53         h1      2    bbb    H15     53 0.13554100   1.008000   ; qtot 2.043978
   54         h1      2    bbb    H16     54 0.13554100   1.008000   ; qtot 2.179519
   55         c3      2    bbb     C9     55 -0.06455200  12.010000   ; qtot 2.114967
   56         h1      2    bbb    H17     56 0.13554100   1.008000   ; qtot 2.250508
   57         h1      2    bbb    H18     57 0.13554100   1.008000   ; qtot 2.386049
   58         os      2    bbb     O1     58 -0.62587700  16.000000   ; qtot 1.760172
   59         hn      2    bbb    H19     59 0.23982500   1.008000   ; qtot 1.999997
; residue    3 bbb rtp bbb q 1.0
   60         n4      3    bbb     N1     60 0.03726400  14.010000   ; qtot 2.037261
   61         c3      3    bbb     C1     61 -0.07020100  12.010000   ; qtot 1.967060
   62         hx      3    bbb     H1     62 0.12219000   1.008000   ; qtot 2.089250
   63         hx      3    bbb     H2     63 0.12219000   1.008000   ; qtot 2.211440
   64         c3      3    bbb     C2     64 -0.07020100  12.010000   ; qtot 2.141239
   65         hx      3    bbb     H3     65 0.12219000   1.008000   ; qtot 2.263429
   66         hx      3    bbb     H4     66 0.12219000   1.008000   ; qtot 2.385619
   67         c3      3    bbb     C3     67 -0.39007700  12.010000   ; qtot 1.995542
   68         hx      3    bbb     H5     68 0.14940300   1.008000   ; qtot 2.144945
   69         hx      3    bbb     H6     69 0.14940300   1.008000   ; qtot 2.294348
   70         c3      3    bbb     C4     70 0.18057300  12.010000   ; qtot 2.474921
   71         hc      3    bbb     H7     71 0.01788900   1.008000   ; qtot 2.492810
   72         hc      3    bbb     H8     72 0.01788900   1.008000   ; qtot 2.510699
   73         c3      3    bbb     C5     73 -0.11337700  12.010000   ; qtot 2.397322
   74         hc      3    bbb     H9     74 0.09515400   1.008000   ; qtot 2.492476
   75         hc      3    bbb    H10     75 0.09515400   1.008000   ; qtot 2.587630
   76         c3      3    bbb     C6     76 -0.11337700  12.010000   ; qtot 2.474253
   77         hc      3    bbb    H11     77 0.09515400   1.008000   ; qtot 2.569407
   78         hc      3    bbb    H12     78 0.09515400   1.008000   ; qtot 2.664561
   79         c3      3    bbb     C7     79 0.21842400  12.010000   ; qtot 2.882985
   80         h1      3    bbb    H13     80 0.04500300   1.008000   ; qtot 2.927988
   81         h1      3    bbb    H14     81 0.04500300   1.008000   ; qtot 2.972991
   82         c3      3    bbb     C8     82 -0.06455200  12.010000   ; qtot 2.908439
   83         h1      3    bbb    H15     83 0.13554100   1.008000   ; qtot 3.043980
   84         h1      3    bbb    H16     84 0.13554100   1.008000   ; qtot 3.179521
   85         c3      3    bbb     C9     85 -0.06455200  12.010000   ; qtot 3.114969
   86         h1      3    bbb    H17     86 0.13554100   1.008000   ; qtot 3.250510
   87         h1      3    bbb    H18     87 0.13554100   1.008000   ; qtot 3.386051
   88         os      3    bbb     O1     88 -0.62587700  16.000000   ; qtot 2.760174
   89         hn      3    bbb    H19     89 0.23982500   1.008000   ; qtot 2.999999
; residue    4 bbb rtp bbb q 1.0
   90         n4      4    bbb     N1     90 0.03726400  14.010000   ; qtot 3.037263
   91         c3      4    bbb     C1     91 -0.07020100  12.010000   ; qtot 2.967062
   92         hx      4    bbb     H1     92 0.12219000   1.008000   ; qtot 3.089252
   93         hx      4    bbb     H2     93 0.12219000   1.008000   ; qtot 3.211442
   94         c3      4    bbb     C2     94 -0.07020100  12.010000   ; qtot 3.141241
   95         hx      4    bbb     H3     95 0.12219000   1.008000   ; qtot 3.263431
   96         hx      4    bbb     H4     96 0.12219000   1.008000   ; qtot 3.385621
   97         c3      4    bbb     C3     97 -0.39007700  12.010000   ; qtot 2.995544
   98         hx      4    bbb     H5     98 0.14940300   1.008000   ; qtot 3.144947
   99         hx      4    bbb     H6     99 0.14940300   1.008000   ; qtot 3.294350
  100         c3      4    bbb     C4    100 0.18057300  12.010000   ; qtot 3.474923
  101         hc      4    bbb     H7    101 0.01788900   1.008000   ; qtot 3.492812
  102         hc      4    bbb     H8    102 0.01788900   1.008000   ; qtot 3.510701
  103         c3      4    bbb     C5    103 -0.11337700  12.010000   ; qtot 3.397324
  104         hc      4    bbb     H9    104 0.09515400   1.008000   ; qtot 3.492478
  105         hc      4    bbb    H10    105 0.09515400   1.008000   ; qtot 3.587632
  106         c3      4    bbb     C6    106 -0.11337700  12.010000   ; qtot 3.474255
  107         hc      4    bbb    H11    107 0.09515400   1.008000   ; qtot 3.569409
  108         hc      4    bbb    H12    108 0.09515400   1.008000   ; qtot 3.664563
  109         c3      4    bbb     C7    109 0.21842400  12.010000   ; qtot 3.882987
  110         h1      4    bbb    H13    110 0.04500300   1.008000   ; qtot 3.927990
  111         h1      4    bbb    H14    111 0.04500300   1.008000   ; qtot 3.972993
  112         c3      4    bbb     C8    112 -0.06455200  12.010000   ; qtot 3.908441
  113         h1      4    bbb    H15    113 0.13554100   1.008000   ; qtot 4.043982
  114         h1      4    bbb    H16    114 0.13554100   1.008000   ; qtot 4.179523
  115         c3      4    bbb     C9    115 -0.06455200  12.010000   ; qtot 4.114971
  116         h1      4    bbb    H17    116 0.13554100   1.008000   ; qtot 4.250512
  117         h1      4    bbb    H18    117 0.13554100   1.008000   ; qtot 4.386053
  118         os      4    bbb     O1    118 -0.62587700  16.000000   ; qtot 3.760176
  119         hn      4    bbb    H19    119 0.23982500   1.008000   ; qtot 4.000001
; residue    5 bbb rtp bbb q 1.0
  120         n4      5    bbb     N1    120 0.03726400  14.010000   ; qtot 4.037265
  121         c3      5    bbb     C1    121 -0.07020100  12.010000   ; qtot 3.967064
  122         hx      5    bbb     H1    122 0.12219000   1.008000   ; qtot 4.089254
  123         hx      5    bbb     H2    123 0.12219000   1.008000   ; qtot 4.211444
  124         c3      5    bbb     C2    124 -0.07020100  12.010000   ; qtot 4.141243
  125         hx      5    bbb     H3    125 0.12219000   1.008000   ; qtot 4.263433
  126         hx      5    bbb     H4    126 0.12219000   1.008000   ; qtot 4.385623
  127         c3      5    bbb     C3    127 -0.39007700  12.010000   ; qtot 3.995546
  128         hx      5    bbb     H5    128 0.14940300   1.008000   ; qtot 4.144949
  129         hx      5    bbb     H6    129 0.14940300   1.008000   ; qtot 4.294352
  130         c3      5    bbb     C4    130 0.18057300  12.010000   ; qtot 4.474925
  131         hc      5    bbb     H7    131 0.01788900   1.008000   ; qtot 4.492814
  132         hc      5    bbb     H8    132 0.01788900   1.008000   ; qtot 4.510703
  133         c3      5    bbb     C5    133 -0.11337700  12.010000   ; qtot 4.397326
  134         hc      5    bbb     H9    134 0.09515400   1.008000   ; qtot 4.492480
  135         hc      5    bbb    H10    135 0.09515400   1.008000   ; qtot 4.587634
  136         c3      5    bbb     C6    136 -0.11337700  12.010000   ; qtot 4.474257
  137         hc      5    bbb    H11    137 0.09515400   1.008000   ; qtot 4.569411
  138         hc      5    bbb    H12    138 0.09515400   1.008000   ; qtot 4.664565
  139         c3      5    bbb     C7    139 0.21842400  12.010000   ; qtot 4.882989
  140         h1      5    bbb    H13    140 0.04500300   1.008000   ; qtot 4.927992
  141         h1      5    bbb    H14    141 0.04500300   1.008000   ; qtot 4.972995
  142         c3      5    bbb     C8    142 -0.06455200  12.010000   ; qtot 4.908443
  143         h1      5    bbb    H15    143 0.13554100   1.008000   ; qtot 5.043984
  144         h1      5    bbb    H16    144 0.13554100   1.008000   ; qtot 5.179525
  145         c3      5    bbb     C9    145 -0.06455200  12.010000   ; qtot 5.114973
  146         h1      5    bbb    H17    146 0.13554100   1.008000   ; qtot 5.250514
  147         h1      5    bbb    H18    147 0.13554100   1.008000   ; qtot 5.386055
  148         os      5    bbb     O1    148 -0.62587700  16.000000   ; qtot 4.760178
  149         hn      5    bbb    H19    149 0.23982500   1.008000   ; qtot 5.000003
; residue    6 bbb rtp bbb q 1.0
  150         n4      6    bbb     N1    150 0.03726400  14.010000   ; qtot 5.037267
  151         c3      6    bbb     C1    151 -0.07020100  12.010000   ; qtot 4.967066
  152         hx      6    bbb     H1    152 0.12219000   1.008000   ; qtot 5.089256
  153         hx      6    bbb     H2    153 0.12219000   1.008000   ; qtot 5.211446
  154         c3      6    bbb     C2    154 -0.07020100  12.010000   ; qtot 5.141245
  155         hx      6    bbb     H3    155 0.12219000   1.008000   ; qtot 5.263435
  156         hx      6    bbb     H4    156 0.12219000   1.008000   ; qtot 5.385625
  157         c3      6    bbb     C3    157 -0.39007700  12.010000   ; qtot 4.995548
  158         hx      6    bbb     H5    158 0.14940300   1.008000   ; qtot 5.144951
  159         hx      6    bbb     H6    159 0.14940300   1.008000   ; qtot 5.294354
  160         c3      6    bbb     C4    160 0.18057300  12.010000   ; qtot 5.474927
  161         hc      6    bbb     H7    161 0.01788900   1.008000   ; qtot 5.492816
  162         hc      6    bbb     H8    162 0.01788900   1.008000   ; qtot 5.510705
  163         c3      6    bbb     C5    163 -0.11337700  12.010000   ; qtot 5.397328
  164         hc      6    bbb     H9    164 0.09515400   1.008000   ; qtot 5.492482
  165         hc      6    bbb    H10    165 0.09515400   1.008000   ; qtot 5.587636
  166         c3      6    bbb     C6    166 -0.11337700  12.010000   ; qtot 5.474259
  167         hc      6    bbb    H11    167 0.09515400   1.008000   ; qtot 5.569413
  168         hc      6    bbb    H12    168 0.09515400   1.008000   ; qtot 5.664567
  169         c3      6    bbb     C7    169 0.21842400  12.010000   ; qtot 5.882991
  170         h1      6    bbb    H13    170 0.04500300   1.008000   ; qtot 5.927994
  171         h1      6    bbb    H14    171 0.04500300   1.008000   ; qtot 5.972997
  172         c3      6    bbb     C8    172 -0.06455200  12.010000   ; qtot 5.908445
  173         h1      6    bbb    H15    173 0.13554100   1.008000   ; qtot 6.043986
  174         h1      6    bbb    H16    174 0.13554100   1.008000   ; qtot 6.179527
  175         c3      6    bbb     C9    175 -0.06455200  12.010000   ; qtot 6.114975
  176         h1      6    bbb    H17    176 0.13554100   1.008000   ; qtot 6.250516
  177         h1      6    bbb    H18    177 0.13554100   1.008000   ; qtot 6.386057
  178         os      6    bbb     O1    178 -0.62587700  16.000000   ; qtot 5.760180
  179         hn      6    bbb    H19    179 0.23982500   1.008000   ; qtot 6.000005
; residue    7 bbb rtp bbb q 1.0
  180         n4      7    bbb     N1    180 0.03726400  14.010000   ; qtot 6.037269
  181         c3      7    bbb     C1    181 -0.07020100  12.010000   ; qtot 5.967068
  182         hx      7    bbb     H1    182 0.12219000   1.008000   ; qtot 6.089258
  183         hx      7    bbb     H2    183 0.12219000   1.008000   ; qtot 6.211448
  184         c3      7    bbb     C2    184 -0.07020100  12.010000   ; qtot 6.141247
  185         hx      7    bbb     H3    185 0.12219000   1.008000   ; qtot 6.263437
  186         hx      7    bbb     H4    186 0.12219000   1.008000   ; qtot 6.385627
  187         c3      7    bbb     C3    187 -0.39007700  12.010000   ; qtot 5.995550
  188         hx      7    bbb     H5    188 0.14940300   1.008000   ; qtot 6.144953
  189         hx      7    bbb     H6    189 0.14940300   1.008000   ; qtot 6.294356
  190         c3      7    bbb     C4    190 0.18057300  12.010000   ; qtot 6.474929
  191         hc      7    bbb     H7    191 0.01788900   1.008000   ; qtot 6.492818
  192         hc      7    bbb     H8    192 0.01788900   1.008000   ; qtot 6.510707
  193         c3      7    bbb     C5    193 -0.11337700  12.010000   ; qtot 6.397330
  194         hc      7    bbb     H9    194 0.09515400   1.008000   ; qtot 6.492484
  195         hc      7    bbb    H10    195 0.09515400   1.008000   ; qtot 6.587638
  196         c3      7    bbb     C6    196 -0.11337700  12.010000   ; qtot 6.474261
  197         hc      7    bbb    H11    197 0.09515400   1.008000   ; qtot 6.569415
  198         hc      7    bbb    H12    198 0.09515400   1.008000   ; qtot 6.664569
  199         c3      7    bbb     C7    199 0.21842400  12.010000   ; qtot 6.882993
  200         h1      7    bbb    H13    200 0.04500300   1.008000   ; qtot 6.927996
  201         h1      7    bbb    H14    201 0.04500300   1.008000   ; qtot 6.972999
  202         c3      7    bbb     C8    202 -0.06455200  12.010000   ; qtot 6.908447
  203         h1      7    bbb    H15    203 0.13554100   1.008000   ; qtot 7.043988
  204         h1      7    bbb    H16    204 0.13554100   1.008000   ; qtot 7.179529
  205         c3      7    bbb     C9    205 -0.06455200  12.010000   ; qtot 7.114977
  206         h1      7    bbb    H17    206 0.13554100   1.008000   ; qtot 7.250518
  207         h1      7    bbb    H18    207 0.13554100   1.008000   ; qtot 7.386059
  208         os      7    bbb     O1    208 -0.62587700  16.000000   ; qtot 6.760182
  209         hn      7    bbb    H19    209 0.23982500   1.008000   ; qtot 7.000007
; residue    8 bbb rtp bbb q 1.0
  210         n4      8    bbb     N1    210 0.03726400  14.010000   ; qtot 7.037271
  211         c3      8    bbb     C1    211 -0.07020100  12.010000   ; qtot 6.967070
  212         hx      8    bbb     H1    212 0.12219000   1.008000   ; qtot 7.089260
  213         hx      8    bbb     H2    213 0.12219000   1.008000   ; qtot 7.211450
  214         c3      8    bbb     C2    214 -0.07020100  12.010000   ; qtot 7.141249
  215         hx      8    bbb     H3    215 0.12219000   1.008000   ; qtot 7.263439
  216         hx      8    bbb     H4    216 0.12219000   1.008000   ; qtot 7.385629
  217         c3      8    bbb     C3    217 -0.39007700  12.010000   ; qtot 6.995552
  218         hx      8    bbb     H5    218 0.14940300   1.008000   ; qtot 7.144955
  219         hx      8    bbb     H6    219 0.14940300   1.008000   ; qtot 7.294358
  220         c3      8    bbb     C4    220 0.18057300  12.010000   ; qtot 7.474931
  221         hc      8    bbb     H7    221 0.01788900   1.008000   ; qtot 7.492820
  222         hc      8    bbb     H8    222 0.01788900   1.008000   ; qtot 7.510709
  223         c3      8    bbb     C5    223 -0.11337700  12.010000   ; qtot 7.397332
  224         hc      8    bbb     H9    224 0.09515400   1.008000   ; qtot 7.492486
  225         hc      8    bbb    H10    225 0.09515400   1.008000   ; qtot 7.587640
  226         c3      8    bbb     C6    226 -0.11337700  12.010000   ; qtot 7.474263
  227         hc      8    bbb    H11    227 0.09515400   1.008000   ; qtot 7.569417
  228         hc      8    bbb    H12    228 0.09515400   1.008000   ; qtot 7.664571
  229         c3      8    bbb     C7    229 0.21842400  12.010000   ; qtot 7.882995
  230         h1      8    bbb    H13    230 0.04500300   1.008000   ; qtot 7.927998
  231         h1      8    bbb    H14    231 0.04500300   1.008000   ; qtot 7.973001
  232         c3      8    bbb     C8    232 -0.06455200  12.010000   ; qtot 7.908449
  233         h1      8    bbb    H15    233 0.13554100   1.008000   ; qtot 8.043990
  234         h1      8    bbb    H16    234 0.13554100   1.008000   ; qtot 8.179531
  235         c3      8    bbb     C9    235 -0.06455200  12.010000   ; qtot 8.114979
  236         h1      8    bbb    H17    236 0.13554100   1.008000   ; qtot 8.250520
  237         h1      8    bbb    H18    237 0.13554100   1.008000   ; qtot 8.386061
  238         os      8    bbb     O1    238 -0.62587700  16.000000   ; qtot 7.760184
  239         hn      8    bbb    H19    239 0.23982500   1.008000   ; qtot 8.000009
; residue    9 bbb rtp bbb q 1.0
  240         n4      9    bbb     N1    240 0.03726400  14.010000   ; qtot 8.037273
  241         c3      9    bbb     C1    241 -0.07020100  12.010000   ; qtot 7.967072
  242         hx      9    bbb     H1    242 0.12219000   1.008000   ; qtot 8.089262
  243         hx      9    bbb     H2    243 0.12219000   1.008000   ; qtot 8.211452
  244         c3      9    bbb     C2    244 -0.07020100  12.010000   ; qtot 8.141251
  245         hx      9    bbb     H3    245 0.12219000   1.008000   ; qtot 8.263441
  246         hx      9    bbb     H4    246 0.12219000   1.008000   ; qtot 8.385631
  247         c3      9    bbb     C3    247 -0.39007700  12.010000   ; qtot 7.995554
  248         hx      9    bbb     H5    248 0.14940300   1.008000   ; qtot 8.144957
  249         hx      9    bbb     H6    249 0.14940300   1.008000   ; qtot 8.294360
  250         c3      9    bbb     C4    250 0.18057300  12.010000   ; qtot 8.474933
  251         hc      9    bbb     H7    251 0.01788900   1.008000   ; qtot 8.492822
  252         hc      9    bbb     H8    252 0.01788900   1.008000   ; qtot 8.510711
  253         c3      9    bbb     C5    253 -0.11337700  12.010000   ; qtot 8.397334
  254         hc      9    bbb     H9    254 0.09515400   1.008000   ; qtot 8.492488
  255         hc      9    bbb    H10    255 0.09515400   1.008000   ; qtot 8.587642
  256         c3      9    bbb     C6    256 -0.11337700  12.010000   ; qtot 8.474265
  257         hc      9    bbb    H11    257 0.09515400   1.008000   ; qtot 8.569419
  258         hc      9    bbb    H12    258 0.09515400   1.008000   ; qtot 8.664573
  259         c3      9    bbb     C7    259 0.21842400  12.010000   ; qtot 8.882997
  260         h1      9    bbb    H13    260 0.04500300   1.008000   ; qtot 8.928000
  261         h1      9    bbb    H14    261 0.04500300   1.008000   ; qtot 8.973003
  262         c3      9    bbb     C8    262 -0.06455200  12.010000   ; qtot 8.908451
  263         h1      9    bbb    H15    263 0.13554100   1.008000   ; qtot 9.043992
  264         h1      9    bbb    H16    264 0.13554100   1.008000   ; qtot 9.179533
  265         c3      9    bbb     C9    265 -0.06455200  12.010000   ; qtot 9.114981
  266         h1      9    bbb    H17    266 0.13554100   1.008000   ; qtot 9.250522
  267         h1      9    bbb    H18    267 0.13554100   1.008000   ; qtot 9.386063
  268         os      9    bbb     O1    268 -0.62587700  16.000000   ; qtot 8.760186
  269         hn      9    bbb    H19    269 0.23982500   1.008000   ; qtot 9.000011
; residue   10 bbb rtp bbb q 1.0
  270         n4     10    bbb     N1    270 0.03726400  14.010000   ; qtot 9.037275
  271         c3     10    bbb     C1    271 -0.07020100  12.010000   ; qtot 8.967074
  272         hx     10    bbb     H1    272 0.12219000   1.008000   ; qtot 9.089264
  273         hx     10    bbb     H2    273 0.12219000   1.008000   ; qtot 9.211454
  274         c3     10    bbb     C2    274 -0.07020100  12.010000   ; qtot 9.141253
  275         hx     10    bbb     H3    275 0.12219000   1.008000   ; qtot 9.263443
  276         hx     10    bbb     H4    276 0.12219000   1.008000   ; qtot 9.385633
  277         c3     10    bbb     C3    277 -0.39007700  12.010000   ; qtot 8.995556
  278         hx     10    bbb     H5    278 0.14940300   1.008000   ; qtot 9.144959
  279         hx     10    bbb     H6    279 0.14940300   1.008000   ; qtot 9.294362
  280         c3     10    bbb     C4    280 0.18057300  12.010000   ; qtot 9.474935
  281         hc     10    bbb     H7    281 0.01788900   1.008000   ; qtot 9.492824
  282         hc     10    bbb     H8    282 0.01788900   1.008000   ; qtot 9.510713
  283         c3     10    bbb     C5    283 -0.11337700  12.010000   ; qtot 9.397336
  284         hc     10    bbb     H9    284 0.09515400   1.008000   ; qtot 9.492490
  285         hc     10    bbb    H10    285 0.09515400   1.008000   ; qtot 9.587644
  286         c3     10    bbb     C6    286 -0.11337700  12.010000   ; qtot 9.474267
  287         hc     10    bbb    H11    287 0.09515400   1.008000   ; qtot 9.569421
  288         hc     10    bbb    H12    288 0.09515400   1.008000   ; qtot 9.664575
  289         c3     10    bbb     C7    289 0.21842400  12.010000   ; qtot 9.882999
  290         h1     10    bbb    H13    290 0.04500300   1.008000   ; qtot 9.928002
  291         h1     10    bbb    H14    291 0.04500300   1.008000   ; qtot 9.973005
  292         c3     10    bbb     C8    292 -0.06455200  12.010000   ; qtot 9.908453
  293         h1     10    bbb    H15    293 0.13554100   1.008000   ; qtot 10.043994
  294         h1     10    bbb    H16    294 0.13554100   1.008000   ; qtot 10.179535
  295         c3     10    bbb     C9    295 -0.06455200  12.010000   ; qtot 10.114983
  296         h1     10    bbb    H17    296 0.13554100   1.008000   ; qtot 10.250524
  297         h1     10    bbb    H18    297 0.13554100   1.008000   ; qtot 10.386065
  298         os     10    bbb     O1    298 -0.62587700  16.000000   ; qtot 9.760188
  299         hn     10    bbb    H19    299 0.23982500   1.008000   ; qtot 10.000013
; residue   11 bbb rtp bbb q 1.0
  300         n4     11    bbb     N1    300 0.03726400  14.010000   ; qtot 10.037277
  301         c3     11    bbb     C1    301 -0.07020100  12.010000   ; qtot 9.967076
  302         hx     11    bbb     H1    302 0.12219000   1.008000   ; qtot 10.089266
  303         hx     11    bbb     H2    303 0.12219000   1.008000   ; qtot 10.211456
  304         c3     11    bbb     C2    304 -0.07020100  12.010000   ; qtot 10.141255
  305         hx     11    bbb     H3    305 0.12219000   1.008000   ; qtot 10.263445
  306         hx     11    bbb     H4    306 0.12219000   1.008000   ; qtot 10.385635
  307         c3     11    bbb     C3    307 -0.39007700  12.010000   ; qtot 9.995558
  308         hx     11    bbb     H5    308 0.14940300   1.008000   ; qtot 10.144961
  309         hx     11    bbb     H6    309 0.14940300   1.008000   ; qtot 10.294364
  310         c3     11    bbb     C4    310 0.18057300  12.010000   ; qtot 10.474937
  311         hc     11    bbb     H7    311 0.01788900   1.008000   ; qtot 10.492826
  312         hc     11    bbb     H8    312 0.01788900   1.008000   ; qtot 10.510715
  313         c3     11    bbb     C5    313 -0.11337700  12.010000   ; qtot 10.397338
  314         hc     11    bbb     H9    314 0.09515400   1.008000   ; qtot 10.492492
  315         hc     11    bbb    H10    315 0.09515400   1.008000   ; qtot 10.587646
  316         c3     11    bbb     C6    316 -0.11337700  12.010000   ; qtot 10.474269
  317         hc     11    bbb    H11    317 0.09515400   1.008000   ; qtot 10.569423
  318         hc     11    bbb    H12    318 0.09515400   1.008000   ; qtot 10.664577
  319         c3     11    bbb     C7    319 0.21842400  12.010000   ; qtot 10.883001
  320         h1     11    bbb    H13    320 0.04500300   1.008000   ; qtot 10.928004
  321         h1     11    bbb    H14    321 0.04500300   1.008000   ; qtot 10.973007
  322         c3     11    bbb     C8    322 -0.06455200  12.010000   ; qtot 10.908455
  323         h1     11    bbb    H15    323 0.13554100   1.008000   ; qtot 11.043996
  324         h1     11    bbb    H16    324 0.13554100   1.008000   ; qtot 11.179537
  325         c3     11    bbb     C9    325 -0.06455200  12.010000   ; qtot 11.114985
  326         h1     11    bbb    H17    326 0.13554100   1.008000   ; qtot 11.250526
  327         h1     11    bbb    H18    327 0.13554100   1.008000   ; qtot 11.386067
  328         os     11    bbb     O1    328 -0.62587700  16.000000   ; qtot 10.760190
  329         hn     11    bbb    H19    329 0.23982500   1.008000   ; qtot 11.000015
; residue   12 bbb rtp bbb q 1.0
  330         n4     12    bbb     N1    330 0.03726400  14.010000   ; qtot 11.037279
  331         c3     12    bbb     C1    331 -0.07020100  12.010000   ; qtot 10.967078
  332         hx     12    bbb     H1    332 0.12219000   1.008000   ; qtot 11.089268
  333         hx     12    bbb     H2    333 0.12219000   1.008000   ; qtot 11.211458
  334         c3     12    bbb     C2    334 -0.07020100  12.010000   ; qtot 11.141257
  335         hx     12    bbb     H3    335 0.12219000   1.008000   ; qtot 11.263447
  336         hx     12    bbb     H4    336 0.12219000   1.008000   ; qtot 11.385637
  337         c3     12    bbb     C3    337 -0.39007700  12.010000   ; qtot 10.995560
  338         hx     12    bbb     H5    338 0.14940300   1.008000   ; qtot 11.144963
  339         hx     12    bbb     H6    339 0.14940300   1.008000   ; qtot 11.294366
  340         c3     12    bbb     C4    340 0.18057300  12.010000   ; qtot 11.474939
  341         hc     12    bbb     H7    341 0.01788900   1.008000   ; qtot 11.492828
  342         hc     12    bbb     H8    342 0.01788900   1.008000   ; qtot 11.510717
  343         c3     12    bbb     C5    343 -0.11337700  12.010000   ; qtot 11.397340
  344         hc     12    bbb     H9    344 0.09515400   1.008000   ; qtot 11.492494
  345         hc     12    bbb    H10    345 0.09515400   1.008000   ; qtot 11.587648
  346         c3     12    bbb     C6    346 -0.11337700  12.010000   ; qtot 11.474271
  347         hc     12    bbb    H11    347 0.09515400   1.008000   ; qtot 11.569425
  348         hc     12    bbb    H12    348 0.09515400   1.008000   ; qtot 11.664579
  349         c3     12    bbb     C7    349 0.21842400  12.010000   ; qtot 11.883003
  350         h1     12    bbb    H13    350 0.04500300   1.008000   ; qtot 11.928006
  351         h1     12    bbb    H14    351 0.04500300   1.008000   ; qtot 11.973009
  352         c3     12    bbb     C8    352 -0.06455200  12.010000   ; qtot 11.908457
  353         h1     12    bbb    H15    353 0.13554100   1.008000   ; qtot 12.043998
  354         h1     12    bbb    H16    354 0.13554100   1.008000   ; qtot 12.179539
  355         c3     12    bbb     C9    355 -0.06455200  12.010000   ; qtot 12.114987
  356         h1     12    bbb    H17    356 0.13554100   1.008000   ; qtot 12.250528
  357         h1     12    bbb    H18    357 0.13554100   1.008000   ; qtot 12.386069
  358         os     12    bbb     O1    358 -0.62587700  16.000000   ; qtot 11.760192
  359         hn     12    bbb    H19    359 0.23982500   1.008000   ; qtot 12.000017
; residue   13 bbb rtp bbb q 1.0
  360         n4     13    bbb     N1    360 0.03726400  14.010000   ; qtot 12.037281
  361         c3     13    bbb     C1    361 -0.07020100  12.010000   ; qtot 11.967080
  362         hx     13    bbb     H1    362 0.12219000   1.008000   ; qtot 12.089270
  363         hx     13    bbb     H2    363 0.12219000   1.008000   ; qtot 12.211460
  364         c3     13    bbb     C2    364 -0.07020100  12.010000   ; qtot 12.141259
  365         hx     13    bbb     H3    365 0.12219000   1.008000   ; qtot 12.263449
  366         hx     13    bbb     H4    366 0.12219000   1.008000   ; qtot 12.385639
  367         c3     13    bbb     C3    367 -0.39007700  12.010000   ; qtot 11.995562
  368         hx     13    bbb     H5    368 0.14940300   1.008000   ; qtot 12.144965
  369         hx     13    bbb     H6    369 0.14940300   1.008000   ; qtot 12.294368
  370         c3     13    bbb     C4    370 0.18057300  12.010000   ; qtot 12.474941
  371         hc     13    bbb     H7    371 0.01788900   1.008000   ; qtot 12.492830
  372         hc     13    bbb     H8    372 0.01788900   1.008000   ; qtot 12.510719
  373         c3     13    bbb     C5    373 -0.11337700  12.010000   ; qtot 12.397342
  374         hc     13    bbb     H9    374 0.09515400   1.008000   ; qtot 12.492496
  375         hc     13    bbb    H10    375 0.09515400   1.008000   ; qtot 12.587650
  376         c3     13    bbb     C6    376 -0.11337700  12.010000   ; qtot 12.474273
  377         hc     13    bbb    H11    377 0.09515400   1.008000   ; qtot 12.569427
  378         hc     13    bbb    H12    378 0.09515400   1.008000   ; qtot 12.664581
  379         c3     13    bbb     C7    379 0.21842400  12.010000   ; qtot 12.883005
  380         h1     13    bbb    H13    380 0.04500300   1.008000   ; qtot 12.928008
  381         h1     13    bbb    H14    381 0.04500300   1.008000   ; qtot 12.973011
  382         c3     13    bbb     C8    382 -0.06455200  12.010000   ; qtot 12.908459
  383         h1     13    bbb    H15    383 0.13554100   1.008000   ; qtot 13.044000
  384         h1     13    bbb    H16    384 0.13554100   1.008000   ; qtot 13.179541
  385         c3     13    bbb     C9    385 -0.06455200  12.010000   ; qtot 13.114989
  386         h1     13    bbb    H17    386 0.13554100   1.008000   ; qtot 13.250530
  387         h1     13    bbb    H18    387 0.13554100   1.008000   ; qtot 13.386071
  388         os     13    bbb     O1    388 -0.62587700  16.000000   ; qtot 12.760194
  389         hn     13    bbb    H19    389 0.23982500   1.008000   ; qtot 13.000019
; residue   14 bbb rtp bbb q 1.0
  390         n4     14    bbb     N1    390 0.03726400  14.010000   ; qtot 13.037283
  391         c3     14    bbb     C1    391 -0.07020100  12.010000   ; qtot 12.967082
  392         hx     14    bbb     H1    392 0.12219000   1.008000   ; qtot 13.089272
  393         hx     14    bbb     H2    393 0.12219000   1.008000   ; qtot 13.211462
  394         c3     14    bbb     C2    394 -0.07020100  12.010000   ; qtot 13.141261
  395         hx     14    bbb     H3    395 0.12219000   1.008000   ; qtot 13.263451
  396         hx     14    bbb     H4    396 0.12219000   1.008000   ; qtot 13.385641
  397         c3     14    bbb     C3    397 -0.39007700  12.010000   ; qtot 12.995564
  398         hx     14    bbb     H5    398 0.14940300   1.008000   ; qtot 13.144967
  399         hx     14    bbb     H6    399 0.14940300   1.008000   ; qtot 13.294370
  400         c3     14    bbb     C4    400 0.18057300  12.010000   ; qtot 13.474943
  401         hc     14    bbb     H7    401 0.01788900   1.008000   ; qtot 13.492832
  402         hc     14    bbb     H8    402 0.01788900   1.008000   ; qtot 13.510721
  403         c3     14    bbb     C5    403 -0.11337700  12.010000   ; qtot 13.397344
  404         hc     14    bbb     H9    404 0.09515400   1.008000   ; qtot 13.492498
  405         hc     14    bbb    H10    405 0.09515400   1.008000   ; qtot 13.587652
  406         c3     14    bbb     C6    406 -0.11337700  12.010000   ; qtot 13.474275
  407         hc     14    bbb    H11    407 0.09515400   1.008000   ; qtot 13.569429
  408         hc     14    bbb    H12    408 0.09515400   1.008000   ; qtot 13.664583
  409         c3     14    bbb     C7    409 0.21842400  12.010000   ; qtot 13.883007
  410         h1     14    bbb    H13    410 0.04500300   1.008000   ; qtot 13.928010
  411         h1     14    bbb    H14    411 0.04500300   1.008000   ; qtot 13.973013
  412         c3     14    bbb     C8    412 -0.06455200  12.010000   ; qtot 13.908461
  413         h1     14    bbb    H15    413 0.13554100   1.008000   ; qtot 14.044002
  414         h1     14    bbb    H16    414 0.13554100   1.008000   ; qtot 14.179543
  415         c3     14    bbb     C9    415 -0.06455200  12.010000   ; qtot 14.114991
  416         h1     14    bbb    H17    416 0.13554100   1.008000   ; qtot 14.250532
  417         h1     14    bbb    H18    417 0.13554100   1.008000   ; qtot 14.386073
  418         os     14    bbb     O1    418 -0.62587700  16.000000   ; qtot 13.760196
  419         hn     14    bbb    H19    419 0.23982500   1.008000   ; qtot 14.000021
; residue   15 bbb rtp bbb q 1.0
  420         n4     15    bbb     N1    420 0.03726400  14.010000   ; qtot 14.037285
  421         c3     15    bbb     C1    421 -0.07020100  12.010000   ; qtot 13.967084
  422         hx     15    bbb     H1    422 0.12219000   1.008000   ; qtot 14.089274
  423         hx     15    bbb     H2    423 0.12219000   1.008000   ; qtot 14.211464
  424         c3     15    bbb     C2    424 -0.07020100  12.010000   ; qtot 14.141263
  425         hx     15    bbb     H3    425 0.12219000   1.008000   ; qtot 14.263453
  426         hx     15    bbb     H4    426 0.12219000   1.008000   ; qtot 14.385643
  427         c3     15    bbb     C3    427 -0.39007700  12.010000   ; qtot 13.995566
  428         hx     15    bbb     H5    428 0.14940300   1.008000   ; qtot 14.144969
  429         hx     15    bbb     H6    429 0.14940300   1.008000   ; qtot 14.294372
  430         c3     15    bbb     C4    430 0.18057300  12.010000   ; qtot 14.474945
  431         hc     15    bbb     H7    431 0.01788900   1.008000   ; qtot 14.492834
  432         hc     15    bbb     H8    432 0.01788900   1.008000   ; qtot 14.510723
  433         c3     15    bbb     C5    433 -0.11337700  12.010000   ; qtot 14.397346
  434         hc     15    bbb     H9    434 0.09515400   1.008000   ; qtot 14.492500
  435         hc     15    bbb    H10    435 0.09515400   1.008000   ; qtot 14.587654
  436         c3     15    bbb     C6    436 -0.11337700  12.010000   ; qtot 14.474277
  437         hc     15    bbb    H11    437 0.09515400   1.008000   ; qtot 14.569431
  438         hc     15    bbb    H12    438 0.09515400   1.008000   ; qtot 14.664585
  439         c3     15    bbb     C7    439 0.21842400  12.010000   ; qtot 14.883009
  440         h1     15    bbb    H13    440 0.04500300   1.008000   ; qtot 14.928012
  441         h1     15    bbb    H14    441 0.04500300   1.008000   ; qtot 14.973015
  442         c3     15    bbb     C8    442 -0.06455200  12.010000   ; qtot 14.908463
  443         h1     15    bbb    H15    443 0.13554100   1.008000   ; qtot 15.044004
  444         h1     15    bbb    H16    444 0.13554100   1.008000   ; qtot 15.179545
  445         c3     15    bbb     C9    445 -0.06455200  12.010000   ; qtot 15.114993
  446         h1     15    bbb    H17    446 0.13554100   1.008000   ; qtot 15.250534
  447         h1     15    bbb    H18    447 0.13554100   1.008000   ; qtot 15.386075
  448         os     15    bbb     O1    448 -0.62587700  16.000000   ; qtot 14.760198
  449         hn     15    bbb    H19    449 0.23982500   1.008000   ; qtot 15.000023
; residue   16 bbb rtp bbb q 1.0
  450         n4     16    bbb     N1    450 0.03726400  14.010000   ; qtot 15.037287
  451         c3     16    bbb     C1    451 -0.07020100  12.010000   ; qtot 14.967086
  452         hx     16    bbb     H1    452 0.12219000   1.008000   ; qtot 15.089276
  453         hx     16    bbb     H2    453 0.12219000   1.008000   ; qtot 15.211466
  454         c3     16    bbb     C2    454 -0.07020100  12.010000   ; qtot 15.141265
  455         hx     16    bbb     H3    455 0.12219000   1.008000   ; qtot 15.263455
  456         hx     16    bbb     H4    456 0.12219000   1.008000   ; qtot 15.385645
  457         c3     16    bbb     C3    457 -0.39007700  12.010000   ; qtot 14.995568
  458         hx     16    bbb     H5    458 0.14940300   1.008000   ; qtot 15.144971
  459         hx     16    bbb     H6    459 0.14940300   1.008000   ; qtot 15.294374
  460         c3     16    bbb     C4    460 0.18057300  12.010000   ; qtot 15.474947
  461         hc     16    bbb     H7    461 0.01788900   1.008000   ; qtot 15.492836
  462         hc     16    bbb     H8    462 0.01788900   1.008000   ; qtot 15.510725
  463         c3     16    bbb     C5    463 -0.11337700  12.010000   ; qtot 15.397348
  464         hc     16    bbb     H9    464 0.09515400   1.008000   ; qtot 15.492502
  465         hc     16    bbb    H10    465 0.09515400   1.008000   ; qtot 15.587656
  466         c3     16    bbb     C6    466 -0.11337700  12.010000   ; qtot 15.474279
  467         hc     16    bbb    H11    467 0.09515400   1.008000   ; qtot 15.569433
  468         hc     16    bbb    H12    468 0.09515400   1.008000   ; qtot 15.664587
  469         c3     16    bbb     C7    469 0.21842400  12.010000   ; qtot 15.883011
  470         h1     16    bbb    H13    470 0.04500300   1.008000   ; qtot 15.928014
  471         h1     16    bbb    H14    471 0.04500300   1.008000   ; qtot 15.973017
  472         c3     16    bbb     C8    472 -0.06455200  12.010000   ; qtot 15.908465
  473         h1     16    bbb    H15    473 0.13554100   1.008000   ; qtot 16.044006
  474         h1     16    bbb    H16    474 0.13554100   1.008000   ; qtot 16.179547
  475         c3     16    bbb     C9    475 -0.06455200  12.010000   ; qtot 16.114995
  476         h1     16    bbb    H17    476 0.13554100   1.008000   ; qtot 16.250536
  477         h1     16    bbb    H18    477 0.13554100   1.008000   ; qtot 16.386077
  478         os     16    bbb     O1    478 -0.62587700  16.000000   ; qtot 15.760200
  479         hn     16    bbb    H19    479 0.23982500   1.008000   ; qtot 16.000025
; residue   17 bbb rtp bbb q 1.0
  480         n4     17    bbb     N1    480 0.03726400  14.010000   ; qtot 16.037289
  481         c3     17    bbb     C1    481 -0.07020100  12.010000   ; qtot 15.967088
  482         hx     17    bbb     H1    482 0.12219000   1.008000   ; qtot 16.089278
  483         hx     17    bbb     H2    483 0.12219000   1.008000   ; qtot 16.211468
  484         c3     17    bbb     C2    484 -0.07020100  12.010000   ; qtot 16.141267
  485         hx     17    bbb     H3    485 0.12219000   1.008000   ; qtot 16.263457
  486         hx     17    bbb     H4    486 0.12219000   1.008000   ; qtot 16.385647
  487         c3     17    bbb     C3    487 -0.39007700  12.010000   ; qtot 15.995570
  488         hx     17    bbb     H5    488 0.14940300   1.008000   ; qtot 16.144973
  489         hx     17    bbb     H6    489 0.14940300   1.008000   ; qtot 16.294376
  490         c3     17    bbb     C4    490 0.18057300  12.010000   ; qtot 16.474949
  491         hc     17    bbb     H7    491 0.01788900   1.008000   ; qtot 16.492838
  492         hc     17    bbb     H8    492 0.01788900   1.008000   ; qtot 16.510727
  493         c3     17    bbb     C5    493 -0.11337700  12.010000   ; qtot 16.397350
  494         hc     17    bbb     H9    494 0.09515400   1.008000   ; qtot 16.492504
  495         hc     17    bbb    H10    495 0.09515400   1.008000   ; qtot 16.587658
  496         c3     17    bbb     C6    496 -0.11337700  12.010000   ; qtot 16.474281
  497         hc     17    bbb    H11    497 0.09515400   1.008000   ; qtot 16.569435
  498         hc     17    bbb    H12    498 0.09515400   1.008000   ; qtot 16.664589
  499         c3     17    bbb     C7    499 0.21842400  12.010000   ; qtot 16.883013
  500         h1     17    bbb    H13    500 0.04500300   1.008000   ; qtot 16.928016
  501         h1     17    bbb    H14    501 0.04500300   1.008000   ; qtot 16.973019
  502         c3     17    bbb     C8    502 -0.06455200  12.010000   ; qtot 16.908467
  503         h1     17    bbb    H15    503 0.13554100   1.008000   ; qtot 17.044008
  504         h1     17    bbb    H16    504 0.13554100   1.008000   ; qtot 17.179549
  505         c3     17    bbb     C9    505 -0.06455200  12.010000   ; qtot 17.114997
  506         h1     17    bbb    H17    506 0.13554100   1.008000   ; qtot 17.250538
  507         h1     17    bbb    H18    507 0.13554100   1.008000   ; qtot 17.386079
  508         os     17    bbb     O1    508 -0.62587700  16.000000   ; qtot 16.760202
  509         hn     17    bbb    H19    509 0.23982500   1.008000   ; qtot 17.000027
; residue   18 bbb rtp bbb q 1.0
  510         n4     18    bbb     N1    510 0.03726400  14.010000   ; qtot 17.037291
  511         c3     18    bbb     C1    511 -0.07020100  12.010000   ; qtot 16.967090
  512         hx     18    bbb     H1    512 0.12219000   1.008000   ; qtot 17.089280
  513         hx     18    bbb     H2    513 0.12219000   1.008000   ; qtot 17.211470
  514         c3     18    bbb     C2    514 -0.07020100  12.010000   ; qtot 17.141269
  515         hx     18    bbb     H3    515 0.12219000   1.008000   ; qtot 17.263459
  516         hx     18    bbb     H4    516 0.12219000   1.008000   ; qtot 17.385649
  517         c3     18    bbb     C3    517 -0.39007700  12.010000   ; qtot 16.995572
  518         hx     18    bbb     H5    518 0.14940300   1.008000   ; qtot 17.144975
  519         hx     18    bbb     H6    519 0.14940300   1.008000   ; qtot 17.294378
  520         c3     18    bbb     C4    520 0.18057300  12.010000   ; qtot 17.474951
  521         hc     18    bbb     H7    521 0.01788900   1.008000   ; qtot 17.492840
  522         hc     18    bbb     H8    522 0.01788900   1.008000   ; qtot 17.510729
  523         c3     18    bbb     C5    523 -0.11337700  12.010000   ; qtot 17.397352
  524         hc     18    bbb     H9    524 0.09515400   1.008000   ; qtot 17.492506
  525         hc     18    bbb    H10    525 0.09515400   1.008000   ; qtot 17.587660
  526         c3     18    bbb     C6    526 -0.11337700  12.010000   ; qtot 17.474283
  527         hc     18    bbb    H11    527 0.09515400   1.008000   ; qtot 17.569437
  528         hc     18    bbb    H12    528 0.09515400   1.008000   ; qtot 17.664591
  529         c3     18    bbb     C7    529 0.21842400  12.010000   ; qtot 17.883015
  530         h1     18    bbb    H13    530 0.04500300   1.008000   ; qtot 17.928018
  531         h1     18    bbb    H14    531 0.04500300   1.008000   ; qtot 17.973021
  532         c3     18    bbb     C8    532 -0.06455200  12.010000   ; qtot 17.908469
  533         h1     18    bbb    H15    533 0.13554100   1.008000   ; qtot 18.044010
  534         h1     18    bbb    H16    534 0.13554100   1.008000   ; qtot 18.179551
  535         c3     18    bbb     C9    535 -0.06455200  12.010000   ; qtot 18.114999
  536         h1     18    bbb    H17    536 0.13554100   1.008000   ; qtot 18.250540
  537         h1     18    bbb    H18    537 0.13554100   1.008000   ; qtot 18.386081
  538         os     18    bbb     O1    538 -0.62587700  16.000000   ; qtot 17.760204
  539         hn     18    bbb    H19    539 0.23982500   1.008000   ; qtot 18.000029
; residue   19 bbb rtp bbb q 1.0
  540         n4     19    bbb     N1    540 0.03726400  14.010000   ; qtot 18.037293
  541         c3     19    bbb     C1    541 -0.07020100  12.010000   ; qtot 17.967092
  542         hx     19    bbb     H1    542 0.12219000   1.008000   ; qtot 18.089282
  543         hx     19    bbb     H2    543 0.12219000   1.008000   ; qtot 18.211472
  544         c3     19    bbb     C2    544 -0.07020100  12.010000   ; qtot 18.141271
  545         hx     19    bbb     H3    545 0.12219000   1.008000   ; qtot 18.263461
  546         hx     19    bbb     H4    546 0.12219000   1.008000   ; qtot 18.385651
  547         c3     19    bbb     C3    547 -0.39007700  12.010000   ; qtot 17.995574
  548         hx     19    bbb     H5    548 0.14940300   1.008000   ; qtot 18.144977
  549         hx     19    bbb     H6    549 0.14940300   1.008000   ; qtot 18.294380
  550         c3     19    bbb     C4    550 0.18057300  12.010000   ; qtot 18.474953
  551         hc     19    bbb     H7    551 0.01788900   1.008000   ; qtot 18.492842
  552         hc     19    bbb     H8    552 0.01788900   1.008000   ; qtot 18.510731
  553         c3     19    bbb     C5    553 -0.11337700  12.010000   ; qtot 18.397354
  554         hc     19    bbb     H9    554 0.09515400   1.008000   ; qtot 18.492508
  555         hc     19    bbb    H10    555 0.09515400   1.008000   ; qtot 18.587662
  556         c3     19    bbb     C6    556 -0.11337700  12.010000   ; qtot 18.474285
  557         hc     19    bbb    H11    557 0.09515400   1.008000   ; qtot 18.569439
  558         hc     19    bbb    H12    558 0.09515400   1.008000   ; qtot 18.664593
  559         c3     19    bbb     C7    559 0.21842400  12.010000   ; qtot 18.883017
  560         h1     19    bbb    H13    560 0.04500300   1.008000   ; qtot 18.928020
  561         h1     19    bbb    H14    561 0.04500300   1.008000   ; qtot 18.973023
  562         c3     19    bbb     C8    562 -0.06455200  12.010000   ; qtot 18.908471
  563         h1     19    bbb    H15    563 0.13554100   1.008000   ; qtot 19.044012
  564         h1     19    bbb    H16    564 0.13554100   1.008000   ; qtot 19.179553
  565         c3     19    bbb     C9    565 -0.06455200  12.010000   ; qtot 19.115001
  566         h1     19    bbb    H17    566 0.13554100   1.008000   ; qtot 19.250542
  567         h1     19    bbb    H18    567 0.13554100   1.008000   ; qtot 19.386083
  568         os     19    bbb     O1    568 -0.62587700  16.000000   ; qtot 18.760206
  569         hn     19    bbb    H19    569 0.23982500   1.008000   ; qtot 19.000031
; residue   20 bbb rtp bbb q 1.0
  570         n4     20    bbb     N1    570 0.03726400  14.010000   ; qtot 19.037295
  571         c3     20    bbb     C1    571 -0.07020100  12.010000   ; qtot 18.967094
  572         hx     20    bbb     H1    572 0.12219000   1.008000   ; qtot 19.089284
  573         hx     20    bbb     H2    573 0.12219000   1.008000   ; qtot 19.211474
  574         c3     20    bbb     C2    574 -0.07020100  12.010000   ; qtot 19.141273
  575         hx     20    bbb     H3    575 0.12219000   1.008000   ; qtot 19.263463
  576         hx     20    bbb     H4    576 0.12219000   1.008000   ; qtot 19.385653
  577         c3     20    bbb     C3    577 -0.39007700  12.010000   ; qtot 18.995576
  578         hx     20    bbb     H5    578 0.14940300   1.008000   ; qtot 19.144979
  579         hx     20    bbb     H6    579 0.14940300   1.008000   ; qtot 19.294382
  580         c3     20    bbb     C4    580 0.18057300  12.010000   ; qtot 19.474955
  581         hc     20    bbb     H7    581 0.01788900   1.008000   ; qtot 19.492844
  582         hc     20    bbb     H8    582 0.01788900   1.008000   ; qtot 19.510733
  583         c3     20    bbb     C5    583 -0.11337700  12.010000   ; qtot 19.397356
  584         hc     20    bbb     H9    584 0.09515400   1.008000   ; qtot 19.492510
  585         hc     20    bbb    H10    585 0.09515400   1.008000   ; qtot 19.587664
  586         c3     20    bbb     C6    586 -0.11337700  12.010000   ; qtot 19.474287
  587         hc     20    bbb    H11    587 0.09515400   1.008000   ; qtot 19.569441
  588         hc     20    bbb    H12    588 0.09515400   1.008000   ; qtot 19.664595
  589         c3     20    bbb     C7    589 0.21842400  12.010000   ; qtot 19.883019
  590         h1     20    bbb    H13    590 0.04500300   1.008000   ; qtot 19.928022
  591         h1     20    bbb    H14    591 0.04500300   1.008000   ; qtot 19.973025
  592         c3     20    bbb     C8    592 -0.06455200  12.010000   ; qtot 19.908473
  593         h1     20    bbb    H15    593 0.13554100   1.008000   ; qtot 20.044014
  594         h1     20    bbb    H16    594 0.13554100   1.008000   ; qtot 20.179555
  595         c3     20    bbb     C9    595 -0.06455200  12.010000   ; qtot 20.115003
  596         h1     20    bbb    H17    596 0.13554100   1.008000   ; qtot 20.250544
  597         h1     20    bbb    H18    597 0.13554100   1.008000   ; qtot 20.386085
  598         os     20    bbb     O1    598 -0.62587700  16.000000   ; qtot 19.760208
  599         hn     20    bbb    H19    599 0.23982500   1.008000   ; qtot 20.000033
; residue   21 bbb rtp bbb q 1.0
  600         n4     21    bbb     N1    600 0.03726400  14.010000   ; qtot 20.037297
  601         c3     21    bbb     C1    601 -0.07020100  12.010000   ; qtot 19.967096
  602         hx     21    bbb     H1    602 0.12219000   1.008000   ; qtot 20.089286
  603         hx     21    bbb     H2    603 0.12219000   1.008000   ; qtot 20.211476
  604         c3     21    bbb     C2    604 -0.07020100  12.010000   ; qtot 20.141275
  605         hx     21    bbb     H3    605 0.12219000   1.008000   ; qtot 20.263465
  606         hx     21    bbb     H4    606 0.12219000   1.008000   ; qtot 20.385655
  607         c3     21    bbb     C3    607 -0.39007700  12.010000   ; qtot 19.995578
  608         hx     21    bbb     H5    608 0.14940300   1.008000   ; qtot 20.144981
  609         hx     21    bbb     H6    609 0.14940300   1.008000   ; qtot 20.294384
  610         c3     21    bbb     C4    610 0.18057300  12.010000   ; qtot 20.474957
  611         hc     21    bbb     H7    611 0.01788900   1.008000   ; qtot 20.492846
  612         hc     21    bbb     H8    612 0.01788900   1.008000   ; qtot 20.510735
  613         c3     21    bbb     C5    613 -0.11337700  12.010000   ; qtot 20.397358
  614         hc     21    bbb     H9    614 0.09515400   1.008000   ; qtot 20.492512
  615         hc     21    bbb    H10    615 0.09515400   1.008000   ; qtot 20.587666
  616         c3     21    bbb     C6    616 -0.11337700  12.010000   ; qtot 20.474289
  617         hc     21    bbb    H11    617 0.09515400   1.008000   ; qtot 20.569443
  618         hc     21    bbb    H12    618 0.09515400   1.008000   ; qtot 20.664597
  619         c3     21    bbb     C7    619 0.21842400  12.010000   ; qtot 20.883021
  620         h1     21    bbb    H13    620 0.04500300   1.008000   ; qtot 20.928024
  621         h1     21    bbb    H14    621 0.04500300   1.008000   ; qtot 20.973027
  622         c3     21    bbb     C8    622 -0.06455200  12.010000   ; qtot 20.908475
  623         h1     21    bbb    H15    623 0.13554100   1.008000   ; qtot 21.044016
  624         h1     21    bbb    H16    624 0.13554100   1.008000   ; qtot 21.179557
  625         c3     21    bbb     C9    625 -0.06455200  12.010000   ; qtot 21.115005
  626         h1     21    bbb    H17    626 0.13554100   1.008000   ; qtot 21.250546
  627         h1     21    bbb    H18    627 0.13554100   1.008000   ; qtot 21.386087
  628         os     21    bbb     O1    628 -0.62587700  16.000000   ; qtot 20.760210
  629         hn     21    bbb    H19    629 0.23982500   1.008000   ; qtot 21.000035
; residue   22 bbb rtp bbb q 1.0
  630         n4     22    bbb     N1    630 0.03726400  14.010000   ; qtot 21.037299
  631         c3     22    bbb     C1    631 -0.07020100  12.010000   ; qtot 20.967098
  632         hx     22    bbb     H1    632 0.12219000   1.008000   ; qtot 21.089288
  633         hx     22    bbb     H2    633 0.12219000   1.008000   ; qtot 21.211478
  634         c3     22    bbb     C2    634 -0.07020100  12.010000   ; qtot 21.141277
  635         hx     22    bbb     H3    635 0.12219000   1.008000   ; qtot 21.263467
  636         hx     22    bbb     H4    636 0.12219000   1.008000   ; qtot 21.385657
  637         c3     22    bbb     C3    637 -0.39007700  12.010000   ; qtot 20.995580
  638         hx     22    bbb     H5    638 0.14940300   1.008000   ; qtot 21.144983
  639         hx     22    bbb     H6    639 0.14940300   1.008000   ; qtot 21.294386
  640         c3     22    bbb     C4    640 0.18057300  12.010000   ; qtot 21.474959
  641         hc     22    bbb     H7    641 0.01788900   1.008000   ; qtot 21.492848
  642         hc     22    bbb     H8    642 0.01788900   1.008000   ; qtot 21.510737
  643         c3     22    bbb     C5    643 -0.11337700  12.010000   ; qtot 21.397360
  644         hc     22    bbb     H9    644 0.09515400   1.008000   ; qtot 21.492514
  645         hc     22    bbb    H10    645 0.09515400   1.008000   ; qtot 21.587668
  646         c3     22    bbb     C6    646 -0.11337700  12.010000   ; qtot 21.474291
  647         hc     22    bbb    H11    647 0.09515400   1.008000   ; qtot 21.569445
  648         hc     22    bbb    H12    648 0.09515400   1.008000   ; qtot 21.664599
  649         c3     22    bbb     C7    649 0.21842400  12.010000   ; qtot 21.883023
  650         h1     22    bbb    H13    650 0.04500300   1.008000   ; qtot 21.928026
  651         h1     22    bbb    H14    651 0.04500300   1.008000   ; qtot 21.973029
  652         c3     22    bbb     C8    652 -0.06455200  12.010000   ; qtot 21.908477
  653         h1     22    bbb    H15    653 0.13554100   1.008000   ; qtot 22.044018
  654         h1     22    bbb    H16    654 0.13554100   1.008000   ; qtot 22.179559
  655         c3     22    bbb     C9    655 -0.06455200  12.010000   ; qtot 22.115007
  656         h1     22    bbb    H17    656 0.13554100   1.008000   ; qtot 22.250548
  657         h1     22    bbb    H18    657 0.13554100   1.008000   ; qtot 22.386089
  658         os     22    bbb     O1    658 -0.62587700  16.000000   ; qtot 21.760212
  659         hn     22    bbb    H19    659 0.23982500   1.008000   ; qtot 22.000037
; residue   23 bbb rtp bbb q 1.0
  660         n4     23    bbb     N1    660 0.03726400  14.010000   ; qtot 22.037301
  661         c3     23    bbb     C1    661 -0.07020100  12.010000   ; qtot 21.967100
  662         hx     23    bbb     H1    662 0.12219000   1.008000   ; qtot 22.089290
  663         hx     23    bbb     H2    663 0.12219000   1.008000   ; qtot 22.211480
  664         c3     23    bbb     C2    664 -0.07020100  12.010000   ; qtot 22.141279
  665         hx     23    bbb     H3    665 0.12219000   1.008000   ; qtot 22.263469
  666         hx     23    bbb     H4    666 0.12219000   1.008000   ; qtot 22.385659
  667         c3     23    bbb     C3    667 -0.39007700  12.010000   ; qtot 21.995582
  668         hx     23    bbb     H5    668 0.14940300   1.008000   ; qtot 22.144985
  669         hx     23    bbb     H6    669 0.14940300   1.008000   ; qtot 22.294388
  670         c3     23    bbb     C4    670 0.18057300  12.010000   ; qtot 22.474961
  671         hc     23    bbb     H7    671 0.01788900   1.008000   ; qtot 22.492850
  672         hc     23    bbb     H8    672 0.01788900   1.008000   ; qtot 22.510739
  673         c3     23    bbb     C5    673 -0.11337700  12.010000   ; qtot 22.397362
  674         hc     23    bbb     H9    674 0.09515400   1.008000   ; qtot 22.492516
  675         hc     23    bbb    H10    675 0.09515400   1.008000   ; qtot 22.587670
  676         c3     23    bbb     C6    676 -0.11337700  12.010000   ; qtot 22.474293
  677         hc     23    bbb    H11    677 0.09515400   1.008000   ; qtot 22.569447
  678         hc     23    bbb    H12    678 0.09515400   1.008000   ; qtot 22.664601
  679         c3     23    bbb     C7    679 0.21842400  12.010000   ; qtot 22.883025
  680         h1     23    bbb    H13    680 0.04500300   1.008000   ; qtot 22.928028
  681         h1     23    bbb    H14    681 0.04500300   1.008000   ; qtot 22.973031
  682         c3     23    bbb     C8    682 -0.06455200  12.010000   ; qtot 22.908479
  683         h1     23    bbb    H15    683 0.13554100   1.008000   ; qtot 23.044020
  684         h1     23    bbb    H16    684 0.13554100   1.008000   ; qtot 23.179561
  685         c3     23    bbb     C9    685 -0.06455200  12.010000   ; qtot 23.115009
  686         h1     23    bbb    H17    686 0.13554100   1.008000   ; qtot 23.250550
  687         h1     23    bbb    H18    687 0.13554100   1.008000   ; qtot 23.386091
  688         os     23    bbb     O1    688 -0.62587700  16.000000   ; qtot 22.760214
  689         hn     23    bbb    H19    689 0.23982500   1.008000   ; qtot 23.000039
; residue   24 bbb rtp bbb q 1.0
  690         n4     24    bbb     N1    690 0.03726400  14.010000   ; qtot 23.037303
  691         c3     24    bbb     C1    691 -0.07020100  12.010000   ; qtot 22.967102
  692         hx     24    bbb     H1    692 0.12219000   1.008000   ; qtot 23.089292
  693         hx     24    bbb     H2    693 0.12219000   1.008000   ; qtot 23.211482
  694         c3     24    bbb     C2    694 -0.07020100  12.010000   ; qtot 23.141281
  695         hx     24    bbb     H3    695 0.12219000   1.008000   ; qtot 23.263471
  696         hx     24    bbb     H4    696 0.12219000   1.008000   ; qtot 23.385661
  697         c3     24    bbb     C3    697 -0.39007700  12.010000   ; qtot 22.995584
  698         hx     24    bbb     H5    698 0.14940300   1.008000   ; qtot 23.144987
  699         hx     24    bbb     H6    699 0.14940300   1.008000   ; qtot 23.294390
  700         c3     24    bbb     C4    700 0.18057300  12.010000   ; qtot 23.474963
  701         hc     24    bbb     H7    701 0.01788900   1.008000   ; qtot 23.492852
  702         hc     24    bbb     H8    702 0.01788900   1.008000   ; qtot 23.510741
  703         c3     24    bbb     C5    703 -0.11337700  12.010000   ; qtot 23.397364
  704         hc     24    bbb     H9    704 0.09515400   1.008000   ; qtot 23.492518
  705         hc     24    bbb    H10    705 0.09515400   1.008000   ; qtot 23.587672
  706         c3     24    bbb     C6    706 -0.11337700  12.010000   ; qtot 23.474295
  707         hc     24    bbb    H11    707 0.09515400   1.008000   ; qtot 23.569449
  708         hc     24    bbb    H12    708 0.09515400   1.008000   ; qtot 23.664603
  709         c3     24    bbb     C7    709 0.21842400  12.010000   ; qtot 23.883027
  710         h1     24    bbb    H13    710 0.04500300   1.008000   ; qtot 23.928030
  711         h1     24    bbb    H14    711 0.04500300   1.008000   ; qtot 23.973033
  712         c3     24    bbb     C8    712 -0.06455200  12.010000   ; qtot 23.908481
  713         h1     24    bbb    H15    713 0.13554100   1.008000   ; qtot 24.044022
  714         h1     24    bbb    H16    714 0.13554100   1.008000   ; qtot 24.179563
  715         c3     24    bbb     C9    715 -0.06455200  12.010000   ; qtot 24.115011
  716         h1     24    bbb    H17    716 0.13554100   1.008000   ; qtot 24.250552
  717         h1     24    bbb    H18    717 0.13554100   1.008000   ; qtot 24.386093
  718         os     24    bbb     O1    718 -0.62587700  16.000000   ; qtot 23.760216
  719         hn     24    bbb    H19    719 0.23982500   1.008000   ; qtot 24.000041
; residue   25 bbb rtp bbb q 1.0
  720         n4     25    bbb     N1    720 0.03726400  14.010000   ; qtot 24.037305
  721         c3     25    bbb     C1    721 -0.07020100  12.010000   ; qtot 23.967104
  722         hx     25    bbb     H1    722 0.12219000   1.008000   ; qtot 24.089294
  723         hx     25    bbb     H2    723 0.12219000   1.008000   ; qtot 24.211484
  724         c3     25    bbb     C2    724 -0.07020100  12.010000   ; qtot 24.141283
  725         hx     25    bbb     H3    725 0.12219000   1.008000   ; qtot 24.263473
  726         hx     25    bbb     H4    726 0.12219000   1.008000   ; qtot 24.385663
  727         c3     25    bbb     C3    727 -0.39007700  12.010000   ; qtot 23.995586
  728         hx     25    bbb     H5    728 0.14940300   1.008000   ; qtot 24.144989
  729         hx     25    bbb     H6    729 0.14940300   1.008000   ; qtot 24.294392
  730         c3     25    bbb     C4    730 0.18057300  12.010000   ; qtot 24.474965
  731         hc     25    bbb     H7    731 0.01788900   1.008000   ; qtot 24.492854
  732         hc     25    bbb     H8    732 0.01788900   1.008000   ; qtot 24.510743
  733         c3     25    bbb     C5    733 -0.11337700  12.010000   ; qtot 24.397366
  734         hc     25    bbb     H9    734 0.09515400   1.008000   ; qtot 24.492520
  735         hc     25    bbb    H10    735 0.09515400   1.008000   ; qtot 24.587674
  736         c3     25    bbb     C6    736 -0.11337700  12.010000   ; qtot 24.474297
  737         hc     25    bbb    H11    737 0.09515400   1.008000   ; qtot 24.569451
  738         hc     25    bbb    H12    738 0.09515400   1.008000   ; qtot 24.664605
  739         c3     25    bbb     C7    739 0.21842400  12.010000   ; qtot 24.883029
  740         h1     25    bbb    H13    740 0.04500300   1.008000   ; qtot 24.928032
  741         h1     25    bbb    H14    741 0.04500300   1.008000   ; qtot 24.973035
  742         c3     25    bbb     C8    742 -0.06455200  12.010000   ; qtot 24.908483
  743         h1     25    bbb    H15    743 0.13554100   1.008000   ; qtot 25.044024
  744         h1     25    bbb    H16    744 0.13554100   1.008000   ; qtot 25.179565
  745         c3     25    bbb     C9    745 -0.06455200  12.010000   ; qtot 25.115013
  746         h1     25    bbb    H17    746 0.13554100   1.008000   ; qtot 25.250554
  747         h1     25    bbb    H18    747 0.13554100   1.008000   ; qtot 25.386095
  748         os     25    bbb     O1    748 -0.62587700  16.000000   ; qtot 24.760218
  749         hn     25    bbb    H19    749 0.23982500   1.008000   ; qtot 25.000043
; residue   26 bbb rtp bbb q 1.0
  750         n4     26    bbb     N1    750 0.03726400  14.010000   ; qtot 25.037307
  751         c3     26    bbb     C1    751 -0.07020100  12.010000   ; qtot 24.967106
  752         hx     26    bbb     H1    752 0.12219000   1.008000   ; qtot 25.089296
  753         hx     26    bbb     H2    753 0.12219000   1.008000   ; qtot 25.211486
  754         c3     26    bbb     C2    754 -0.07020100  12.010000   ; qtot 25.141285
  755         hx     26    bbb     H3    755 0.12219000   1.008000   ; qtot 25.263475
  756         hx     26    bbb     H4    756 0.12219000   1.008000   ; qtot 25.385665
  757         c3     26    bbb     C3    757 -0.39007700  12.010000   ; qtot 24.995588
  758         hx     26    bbb     H5    758 0.14940300   1.008000   ; qtot 25.144991
  759         hx     26    bbb     H6    759 0.14940300   1.008000   ; qtot 25.294394
  760         c3     26    bbb     C4    760 0.18057300  12.010000   ; qtot 25.474967
  761         hc     26    bbb     H7    761 0.01788900   1.008000   ; qtot 25.492856
  762         hc     26    bbb     H8    762 0.01788900   1.008000   ; qtot 25.510745
  763         c3     26    bbb     C5    763 -0.11337700  12.010000   ; qtot 25.397368
  764         hc     26    bbb     H9    764 0.09515400   1.008000   ; qtot 25.492522
  765         hc     26    bbb    H10    765 0.09515400   1.008000   ; qtot 25.587676
  766         c3     26    bbb     C6    766 -0.11337700  12.010000   ; qtot 25.474299
  767         hc     26    bbb    H11    767 0.09515400   1.008000   ; qtot 25.569453
  768         hc     26    bbb    H12    768 0.09515400   1.008000   ; qtot 25.664607
  769         c3     26    bbb     C7    769 0.21842400  12.010000   ; qtot 25.883031
  770         h1     26    bbb    H13    770 0.04500300   1.008000   ; qtot 25.928034
  771         h1     26    bbb    H14    771 0.04500300   1.008000   ; qtot 25.973037
  772         c3     26    bbb     C8    772 -0.06455200  12.010000   ; qtot 25.908485
  773         h1     26    bbb    H15    773 0.13554100   1.008000   ; qtot 26.044026
  774         h1     26    bbb    H16    774 0.13554100   1.008000   ; qtot 26.179567
  775         c3     26    bbb     C9    775 -0.06455200  12.010000   ; qtot 26.115015
  776         h1     26    bbb    H17    776 0.13554100   1.008000   ; qtot 26.250556
  777         h1     26    bbb    H18    777 0.13554100   1.008000   ; qtot 26.386097
  778         os     26    bbb     O1    778 -0.62587700  16.000000   ; qtot 25.760220
  779         hn     26    bbb    H19    779 0.23982500   1.008000   ; qtot 26.000045
; residue   27 bbb rtp bbb q 1.0
  780         n4     27    bbb     N1    780 0.03726400  14.010000   ; qtot 26.037309
  781         c3     27    bbb     C1    781 -0.07020100  12.010000   ; qtot 25.967108
  782         hx     27    bbb     H1    782 0.12219000   1.008000   ; qtot 26.089298
  783         hx     27    bbb     H2    783 0.12219000   1.008000   ; qtot 26.211488
  784         c3     27    bbb     C2    784 -0.07020100  12.010000   ; qtot 26.141287
  785         hx     27    bbb     H3    785 0.12219000   1.008000   ; qtot 26.263477
  786         hx     27    bbb     H4    786 0.12219000   1.008000   ; qtot 26.385667
  787         c3     27    bbb     C3    787 -0.39007700  12.010000   ; qtot 25.995590
  788         hx     27    bbb     H5    788 0.14940300   1.008000   ; qtot 26.144993
  789         hx     27    bbb     H6    789 0.14940300   1.008000   ; qtot 26.294396
  790         c3     27    bbb     C4    790 0.18057300  12.010000   ; qtot 26.474969
  791         hc     27    bbb     H7    791 0.01788900   1.008000   ; qtot 26.492858
  792         hc     27    bbb     H8    792 0.01788900   1.008000   ; qtot 26.510747
  793         c3     27    bbb     C5    793 -0.11337700  12.010000   ; qtot 26.397370
  794         hc     27    bbb     H9    794 0.09515400   1.008000   ; qtot 26.492524
  795         hc     27    bbb    H10    795 0.09515400   1.008000   ; qtot 26.587678
  796         c3     27    bbb     C6    796 -0.11337700  12.010000   ; qtot 26.474301
  797         hc     27    bbb    H11    797 0.09515400   1.008000   ; qtot 26.569455
  798         hc     27    bbb    H12    798 0.09515400   1.008000   ; qtot 26.664609
  799         c3     27    bbb     C7    799 0.21842400  12.010000   ; qtot 26.883033
  800         h1     27    bbb    H13    800 0.04500300   1.008000   ; qtot 26.928036
  801         h1     27    bbb    H14    801 0.04500300   1.008000   ; qtot 26.973039
  802         c3     27    bbb     C8    802 -0.06455200  12.010000   ; qtot 26.908487
  803         h1     27    bbb    H15    803 0.13554100   1.008000   ; qtot 27.044028
  804         h1     27    bbb    H16    804 0.13554100   1.008000   ; qtot 27.179569
  805         c3     27    bbb     C9    805 -0.06455200  12.010000   ; qtot 27.115017
  806         h1     27    bbb    H17    806 0.13554100   1.008000   ; qtot 27.250558
  807         h1     27    bbb    H18    807 0.13554100   1.008000   ; qtot 27.386099
  808         os     27    bbb     O1    808 -0.62587700  16.000000   ; qtot 26.760222
  809         hn     27    bbb    H19    809 0.23982500   1.008000   ; qtot 27.000047
; residue   28 bbb rtp bbb q 1.0
  810         n4     28    bbb     N1    810 0.03726400  14.010000   ; qtot 27.037311
  811         c3     28    bbb     C1    811 -0.07020100  12.010000   ; qtot 26.967110
  812         hx     28    bbb     H1    812 0.12219000   1.008000   ; qtot 27.089300
  813         hx     28    bbb     H2    813 0.12219000   1.008000   ; qtot 27.211490
  814         c3     28    bbb     C2    814 -0.07020100  12.010000   ; qtot 27.141289
  815         hx     28    bbb     H3    815 0.12219000   1.008000   ; qtot 27.263479
  816         hx     28    bbb     H4    816 0.12219000   1.008000   ; qtot 27.385669
  817         c3     28    bbb     C3    817 -0.39007700  12.010000   ; qtot 26.995592
  818         hx     28    bbb     H5    818 0.14940300   1.008000   ; qtot 27.144995
  819         hx     28    bbb     H6    819 0.14940300   1.008000   ; qtot 27.294398
  820         c3     28    bbb     C4    820 0.18057300  12.010000   ; qtot 27.474971
  821         hc     28    bbb     H7    821 0.01788900   1.008000   ; qtot 27.492860
  822         hc     28    bbb     H8    822 0.01788900   1.008000   ; qtot 27.510749
  823         c3     28    bbb     C5    823 -0.11337700  12.010000   ; qtot 27.397372
  824         hc     28    bbb     H9    824 0.09515400   1.008000   ; qtot 27.492526
  825         hc     28    bbb    H10    825 0.09515400   1.008000   ; qtot 27.587680
  826         c3     28    bbb     C6    826 -0.11337700  12.010000   ; qtot 27.474303
  827         hc     28    bbb    H11    827 0.09515400   1.008000   ; qtot 27.569457
  828         hc     28    bbb    H12    828 0.09515400   1.008000   ; qtot 27.664611
  829         c3     28    bbb     C7    829 0.21842400  12.010000   ; qtot 27.883035
  830         h1     28    bbb    H13    830 0.04500300   1.008000   ; qtot 27.928038
  831         h1     28    bbb    H14    831 0.04500300   1.008000   ; qtot 27.973041
  832         c3     28    bbb     C8    832 -0.06455200  12.010000   ; qtot 27.908489
  833         h1     28    bbb    H15    833 0.13554100   1.008000   ; qtot 28.044030
  834         h1     28    bbb    H16    834 0.13554100   1.008000   ; qtot 28.179571
  835         c3     28    bbb     C9    835 -0.06455200  12.010000   ; qtot 28.115019
  836         h1     28    bbb    H17    836 0.13554100   1.008000   ; qtot 28.250560
  837         h1     28    bbb    H18    837 0.13554100   1.008000   ; qtot 28.386101
  838         os     28    bbb     O1    838 -0.62587700  16.000000   ; qtot 27.760224
  839         hn     28    bbb    H19    839 0.23982500   1.008000   ; qtot 28.000049
; residue   29 bbb rtp bbb q 1.0
  840         n4     29    bbb     N1    840 0.03726400  14.010000   ; qtot 28.037313
  841         c3     29    bbb     C1    841 -0.07020100  12.010000   ; qtot 27.967112
  842         hx     29    bbb     H1    842 0.12219000   1.008000   ; qtot 28.089302
  843         hx     29    bbb     H2    843 0.12219000   1.008000   ; qtot 28.211492
  844         c3     29    bbb     C2    844 -0.07020100  12.010000   ; qtot 28.141291
  845         hx     29    bbb     H3    845 0.12219000   1.008000   ; qtot 28.263481
  846         hx     29    bbb     H4    846 0.12219000   1.008000   ; qtot 28.385671
  847         c3     29    bbb     C3    847 -0.39007700  12.010000   ; qtot 27.995594
  848         hx     29    bbb     H5    848 0.14940300   1.008000   ; qtot 28.144997
  849         hx     29    bbb     H6    849 0.14940300   1.008000   ; qtot 28.294400
  850         c3     29    bbb     C4    850 0.18057300  12.010000   ; qtot 28.474973
  851         hc     29    bbb     H7    851 0.01788900   1.008000   ; qtot 28.492862
  852         hc     29    bbb     H8    852 0.01788900   1.008000   ; qtot 28.510751
  853         c3     29    bbb     C5    853 -0.11337700  12.010000   ; qtot 28.397374
  854         hc     29    bbb     H9    854 0.09515400   1.008000   ; qtot 28.492528
  855         hc     29    bbb    H10    855 0.09515400   1.008000   ; qtot 28.587682
  856         c3     29    bbb     C6    856 -0.11337700  12.010000   ; qtot 28.474305
  857         hc     29    bbb    H11    857 0.09515400   1.008000   ; qtot 28.569459
  858         hc     29    bbb    H12    858 0.09515400   1.008000   ; qtot 28.664613
  859         c3     29    bbb     C7    859 0.21842400  12.010000   ; qtot 28.883037
  860         h1     29    bbb    H13    860 0.04500300   1.008000   ; qtot 28.928040
  861         h1     29    bbb    H14    861 0.04500300   1.008000   ; qtot 28.973043
  862         c3     29    bbb     C8    862 -0.06455200  12.010000   ; qtot 28.908491
  863         h1     29    bbb    H15    863 0.13554100   1.008000   ; qtot 29.044032
  864         h1     29    bbb    H16    864 0.13554100   1.008000   ; qtot 29.179573
  865         c3     29    bbb     C9    865 -0.06455200  12.010000   ; qtot 29.115021
  866         h1     29    bbb    H17    866 0.13554100   1.008000   ; qtot 29.250562
  867         h1     29    bbb    H18    867 0.13554100   1.008000   ; qtot 29.386103
  868         os     29    bbb     O1    868 -0.62587700  16.000000   ; qtot 28.760226
  869         hn     29    bbb    H19    869 0.23982500   1.008000   ; qtot 29.000051
; residue   30 bbb rtp bbb q 1.0
  870         n4     30    bbb     N1    870 0.03726400  14.010000   ; qtot 29.037315
  871         c3     30    bbb     C1    871 -0.07020100  12.010000   ; qtot 28.967114
  872         hx     30    bbb     H1    872 0.12219000   1.008000   ; qtot 29.089304
  873         hx     30    bbb     H2    873 0.12219000   1.008000   ; qtot 29.211494
  874         c3     30    bbb     C2    874 -0.07020100  12.010000   ; qtot 29.141293
  875         hx     30    bbb     H3    875 0.12219000   1.008000   ; qtot 29.263483
  876         hx     30    bbb     H4    876 0.12219000   1.008000   ; qtot 29.385673
  877         c3     30    bbb     C3    877 -0.39007700  12.010000   ; qtot 28.995596
  878         hx     30    bbb     H5    878 0.14940300   1.008000   ; qtot 29.144999
  879         hx     30    bbb     H6    879 0.14940300   1.008000   ; qtot 29.294402
  880         c3     30    bbb     C4    880 0.18057300  12.010000   ; qtot 29.474975
  881         hc     30    bbb     H7    881 0.01788900   1.008000   ; qtot 29.492864
  882         hc     30    bbb     H8    882 0.01788900   1.008000   ; qtot 29.510753
  883         c3     30    bbb     C5    883 -0.11337700  12.010000   ; qtot 29.397376
  884         hc     30    bbb     H9    884 0.09515400   1.008000   ; qtot 29.492530
  885         hc     30    bbb    H10    885 0.09515400   1.008000   ; qtot 29.587684
  886         c3     30    bbb     C6    886 -0.11337700  12.010000   ; qtot 29.474307
  887         hc     30    bbb    H11    887 0.09515400   1.008000   ; qtot 29.569461
  888         hc     30    bbb    H12    888 0.09515400   1.008000   ; qtot 29.664615
  889         c3     30    bbb     C7    889 0.21842400  12.010000   ; qtot 29.883039
  890         h1     30    bbb    H13    890 0.04500300   1.008000   ; qtot 29.928042
  891         h1     30    bbb    H14    891 0.04500300   1.008000   ; qtot 29.973045
  892         c3     30    bbb     C8    892 -0.06455200  12.010000   ; qtot 29.908493
  893         h1     30    bbb    H15    893 0.13554100   1.008000   ; qtot 30.044034
  894         h1     30    bbb    H16    894 0.13554100   1.008000   ; qtot 30.179575
  895         c3     30    bbb     C9    895 -0.06455200  12.010000   ; qtot 30.115023
  896         h1     30    bbb    H17    896 0.13554100   1.008000   ; qtot 30.250564
  897         h1     30    bbb    H18    897 0.13554100   1.008000   ; qtot 30.386105
  898         os     30    bbb     O1    898 -0.62587700  16.000000   ; qtot 29.760228
  899         hn     30    bbb    H19    899 0.23982500   1.008000   ; qtot 30.000053
; residue   31 bbb rtp bbb q 1.0
  900         n4     31    bbb     N1    900 0.03726400  14.010000   ; qtot 30.037317
  901         c3     31    bbb     C1    901 -0.07020100  12.010000   ; qtot 29.967116
  902         hx     31    bbb     H1    902 0.12219000   1.008000   ; qtot 30.089306
  903         hx     31    bbb     H2    903 0.12219000   1.008000   ; qtot 30.211496
  904         c3     31    bbb     C2    904 -0.07020100  12.010000   ; qtot 30.141295
  905         hx     31    bbb     H3    905 0.12219000   1.008000   ; qtot 30.263485
  906         hx     31    bbb     H4    906 0.12219000   1.008000   ; qtot 30.385675
  907         c3     31    bbb     C3    907 -0.39007700  12.010000   ; qtot 29.995598
  908         hx     31    bbb     H5    908 0.14940300   1.008000   ; qtot 30.145001
  909         hx     31    bbb     H6    909 0.14940300   1.008000   ; qtot 30.294404
  910         c3     31    bbb     C4    910 0.18057300  12.010000   ; qtot 30.474977
  911         hc     31    bbb     H7    911 0.01788900   1.008000   ; qtot 30.492866
  912         hc     31    bbb     H8    912 0.01788900   1.008000   ; qtot 30.510755
  913         c3     31    bbb     C5    913 -0.11337700  12.010000   ; qtot 30.397378
  914         hc     31    bbb     H9    914 0.09515400   1.008000   ; qtot 30.492532
  915         hc     31    bbb    H10    915 0.09515400   1.008000   ; qtot 30.587686
  916         c3     31    bbb     C6    916 -0.11337700  12.010000   ; qtot 30.474309
  917         hc     31    bbb    H11    917 0.09515400   1.008000   ; qtot 30.569463
  918         hc     31    bbb    H12    918 0.09515400   1.008000   ; qtot 30.664617
  919         c3     31    bbb     C7    919 0.21842400  12.010000   ; qtot 30.883041
  920         h1     31    bbb    H13    920 0.04500300   1.008000   ; qtot 30.928044
  921         h1     31    bbb    H14    921 0.04500300   1.008000   ; qtot 30.973047
  922         c3     31    bbb     C8    922 -0.06455200  12.010000   ; qtot 30.908495
  923         h1     31    bbb    H15    923 0.13554100   1.008000   ; qtot 31.044036
  924         h1     31    bbb    H16    924 0.13554100   1.008000   ; qtot 31.179577
  925         c3     31    bbb     C9    925 -0.06455200  12.010000   ; qtot 31.115025
  926         h1     31    bbb    H17    926 0.13554100   1.008000   ; qtot 31.250566
  927         h1     31    bbb    H18    927 0.13554100   1.008000   ; qtot 31.386107
  928         os     31    bbb     O1    928 -0.62587700  16.000000   ; qtot 30.760230
  929         hn     31    bbb    H19    929 0.23982500   1.008000   ; qtot 31.000055
; residue   32 bbb rtp bbb q 1.0
  930         n4     32    bbb     N1    930 0.03726400  14.010000   ; qtot 31.037319
  931         c3     32    bbb     C1    931 -0.07020100  12.010000   ; qtot 30.967118
  932         hx     32    bbb     H1    932 0.12219000   1.008000   ; qtot 31.089308
  933         hx     32    bbb     H2    933 0.12219000   1.008000   ; qtot 31.211498
  934         c3     32    bbb     C2    934 -0.07020100  12.010000   ; qtot 31.141297
  935         hx     32    bbb     H3    935 0.12219000   1.008000   ; qtot 31.263487
  936         hx     32    bbb     H4    936 0.12219000   1.008000   ; qtot 31.385677
  937         c3     32    bbb     C3    937 -0.39007700  12.010000   ; qtot 30.995600
  938         hx     32    bbb     H5    938 0.14940300   1.008000   ; qtot 31.145003
  939         hx     32    bbb     H6    939 0.14940300   1.008000   ; qtot 31.294406
  940         c3     32    bbb     C4    940 0.18057300  12.010000   ; qtot 31.474979
  941         hc     32    bbb     H7    941 0.01788900   1.008000   ; qtot 31.492868
  942         hc     32    bbb     H8    942 0.01788900   1.008000   ; qtot 31.510757
  943         c3     32    bbb     C5    943 -0.11337700  12.010000   ; qtot 31.397380
  944         hc     32    bbb     H9    944 0.09515400   1.008000   ; qtot 31.492534
  945         hc     32    bbb    H10    945 0.09515400   1.008000   ; qtot 31.587688
  946         c3     32    bbb     C6    946 -0.11337700  12.010000   ; qtot 31.474311
  947         hc     32    bbb    H11    947 0.09515400   1.008000   ; qtot 31.569465
  948         hc     32    bbb    H12    948 0.09515400   1.008000   ; qtot 31.664619
  949         c3     32    bbb     C7    949 0.21842400  12.010000   ; qtot 31.883043
  950         h1     32    bbb    H13    950 0.04500300   1.008000   ; qtot 31.928046
  951         h1     32    bbb    H14    951 0.04500300   1.008000   ; qtot 31.973049
  952         c3     32    bbb     C8    952 -0.06455200  12.010000   ; qtot 31.908497
  953         h1     32    bbb    H15    953 0.13554100   1.008000   ; qtot 32.044038
  954         h1     32    bbb    H16    954 0.13554100   1.008000   ; qtot 32.179579
  955         c3     32    bbb     C9    955 -0.06455200  12.010000   ; qtot 32.115027
  956         h1     32    bbb    H17    956 0.13554100   1.008000   ; qtot 32.250568
  957         h1     32    bbb    H18    957 0.13554100   1.008000   ; qtot 32.386109
  958         os     32    bbb     O1    958 -0.62587700  16.000000   ; qtot 31.760232
  959         hn     32    bbb    H19    959 0.23982500   1.008000   ; qtot 32.000057
; residue   33 bbb rtp bbb q 1.0
  960         n4     33    bbb     N1    960 0.03726400  14.010000   ; qtot 32.037321
  961         c3     33    bbb     C1    961 -0.07020100  12.010000   ; qtot 31.967120
  962         hx     33    bbb     H1    962 0.12219000   1.008000   ; qtot 32.089310
  963         hx     33    bbb     H2    963 0.12219000   1.008000   ; qtot 32.211500
  964         c3     33    bbb     C2    964 -0.07020100  12.010000   ; qtot 32.141299
  965         hx     33    bbb     H3    965 0.12219000   1.008000   ; qtot 32.263489
  966         hx     33    bbb     H4    966 0.12219000   1.008000   ; qtot 32.385679
  967         c3     33    bbb     C3    967 -0.39007700  12.010000   ; qtot 31.995602
  968         hx     33    bbb     H5    968 0.14940300   1.008000   ; qtot 32.145005
  969         hx     33    bbb     H6    969 0.14940300   1.008000   ; qtot 32.294408
  970         c3     33    bbb     C4    970 0.18057300  12.010000   ; qtot 32.474981
  971         hc     33    bbb     H7    971 0.01788900   1.008000   ; qtot 32.492870
  972         hc     33    bbb     H8    972 0.01788900   1.008000   ; qtot 32.510759
  973         c3     33    bbb     C5    973 -0.11337700  12.010000   ; qtot 32.397382
  974         hc     33    bbb     H9    974 0.09515400   1.008000   ; qtot 32.492536
  975         hc     33    bbb    H10    975 0.09515400   1.008000   ; qtot 32.587690
  976         c3     33    bbb     C6    976 -0.11337700  12.010000   ; qtot 32.474313
  977         hc     33    bbb    H11    977 0.09515400   1.008000   ; qtot 32.569467
  978         hc     33    bbb    H12    978 0.09515400   1.008000   ; qtot 32.664621
  979         c3     33    bbb     C7    979 0.21842400  12.010000   ; qtot 32.883045
  980         h1     33    bbb    H13    980 0.04500300   1.008000   ; qtot 32.928048
  981         h1     33    bbb    H14    981 0.04500300   1.008000   ; qtot 32.973051
  982         c3     33    bbb     C8    982 -0.06455200  12.010000   ; qtot 32.908499
  983         h1     33    bbb    H15    983 0.13554100   1.008000   ; qtot 33.044040
  984         h1     33    bbb    H16    984 0.13554100   1.008000   ; qtot 33.179581
  985         c3     33    bbb     C9    985 -0.06455200  12.010000   ; qtot 33.115029
  986         h1     33    bbb    H17    986 0.13554100   1.008000   ; qtot 33.250570
  987         h1     33    bbb    H18    987 0.13554100   1.008000   ; qtot 33.386111
  988         os     33    bbb     O1    988 -0.62587700  16.000000   ; qtot 32.760234
  989         hn     33    bbb    H19    989 0.23982500   1.008000   ; qtot 33.000059
; residue   34 bbb rtp bbb q 1.0
  990         n4     34    bbb     N1    990 0.03726400  14.010000   ; qtot 33.037323
  991         c3     34    bbb     C1    991 -0.07020100  12.010000   ; qtot 32.967122
  992         hx     34    bbb     H1    992 0.12219000   1.008000   ; qtot 33.089312
  993         hx     34    bbb     H2    993 0.12219000   1.008000   ; qtot 33.211502
  994         c3     34    bbb     C2    994 -0.07020100  12.010000   ; qtot 33.141301
  995         hx     34    bbb     H3    995 0.12219000   1.008000   ; qtot 33.263491
  996         hx     34    bbb     H4    996 0.12219000   1.008000   ; qtot 33.385681
  997         c3     34    bbb     C3    997 -0.39007700  12.010000   ; qtot 32.995604
  998         hx     34    bbb     H5    998 0.14940300   1.008000   ; qtot 33.145007
  999         hx     34    bbb     H6    999 0.14940300   1.008000   ; qtot 33.294410
 1000         c3     34    bbb     C4   1000 0.18057300  12.010000   ; qtot 33.474983
 1001         hc     34    bbb     H7   1001 0.01788900   1.008000   ; qtot 33.492872
 1002         hc     34    bbb     H8   1002 0.01788900   1.008000   ; qtot 33.510761
 1003         c3     34    bbb     C5   1003 -0.11337700  12.010000   ; qtot 33.397384
 1004         hc     34    bbb     H9   1004 0.09515400   1.008000   ; qtot 33.492538
 1005         hc     34    bbb    H10   1005 0.09515400   1.008000   ; qtot 33.587692
 1006         c3     34    bbb     C6   1006 -0.11337700  12.010000   ; qtot 33.474315
 1007         hc     34    bbb    H11   1007 0.09515400   1.008000   ; qtot 33.569469
 1008         hc     34    bbb    H12   1008 0.09515400   1.008000   ; qtot 33.664623
 1009         c3     34    bbb     C7   1009 0.21842400  12.010000   ; qtot 33.883047
 1010         h1     34    bbb    H13   1010 0.04500300   1.008000   ; qtot 33.928050
 1011         h1     34    bbb    H14   1011 0.04500300   1.008000   ; qtot 33.973053
 1012         c3     34    bbb     C8   1012 -0.06455200  12.010000   ; qtot 33.908501
 1013         h1     34    bbb    H15   1013 0.13554100   1.008000   ; qtot 34.044042
 1014         h1     34    bbb    H16   1014 0.13554100   1.008000   ; qtot 34.179583
 1015         c3     34    bbb     C9   1015 -0.06455200  12.010000   ; qtot 34.115031
 1016         h1     34    bbb    H17   1016 0.13554100   1.008000   ; qtot 34.250572
 1017         h1     34    bbb    H18   1017 0.13554100   1.008000   ; qtot 34.386113
 1018         os     34    bbb     O1   1018 -0.62587700  16.000000   ; qtot 33.760236
 1019         hn     34    bbb    H19   1019 0.23982500   1.008000   ; qtot 34.000061
; residue   35 bbb rtp bbb q 1.0
 1020         n4     35    bbb     N1   1020 0.03726400  14.010000   ; qtot 34.037325
 1021         c3     35    bbb     C1   1021 -0.07020100  12.010000   ; qtot 33.967124
 1022         hx     35    bbb     H1   1022 0.12219000   1.008000   ; qtot 34.089314
 1023         hx     35    bbb     H2   1023 0.12219000   1.008000   ; qtot 34.211504
 1024         c3     35    bbb     C2   1024 -0.07020100  12.010000   ; qtot 34.141303
 1025         hx     35    bbb     H3   1025 0.12219000   1.008000   ; qtot 34.263493
 1026         hx     35    bbb     H4   1026 0.12219000   1.008000   ; qtot 34.385683
 1027         c3     35    bbb     C3   1027 -0.39007700  12.010000   ; qtot 33.995606
 1028         hx     35    bbb     H5   1028 0.14940300   1.008000   ; qtot 34.145009
 1029         hx     35    bbb     H6   1029 0.14940300   1.008000   ; qtot 34.294412
 1030         c3     35    bbb     C4   1030 0.18057300  12.010000   ; qtot 34.474985
 1031         hc     35    bbb     H7   1031 0.01788900   1.008000   ; qtot 34.492874
 1032         hc     35    bbb     H8   1032 0.01788900   1.008000   ; qtot 34.510763
 1033         c3     35    bbb     C5   1033 -0.11337700  12.010000   ; qtot 34.397386
 1034         hc     35    bbb     H9   1034 0.09515400   1.008000   ; qtot 34.492540
 1035         hc     35    bbb    H10   1035 0.09515400   1.008000   ; qtot 34.587694
 1036         c3     35    bbb     C6   1036 -0.11337700  12.010000   ; qtot 34.474317
 1037         hc     35    bbb    H11   1037 0.09515400   1.008000   ; qtot 34.569471
 1038         hc     35    bbb    H12   1038 0.09515400   1.008000   ; qtot 34.664625
 1039         c3     35    bbb     C7   1039 0.21842400  12.010000   ; qtot 34.883049
 1040         h1     35    bbb    H13   1040 0.04500300   1.008000   ; qtot 34.928052
 1041         h1     35    bbb    H14   1041 0.04500300   1.008000   ; qtot 34.973055
 1042         c3     35    bbb     C8   1042 -0.06455200  12.010000   ; qtot 34.908503
 1043         h1     35    bbb    H15   1043 0.13554100   1.008000   ; qtot 35.044044
 1044         h1     35    bbb    H16   1044 0.13554100   1.008000   ; qtot 35.179585
 1045         c3     35    bbb     C9   1045 -0.06455200  12.010000   ; qtot 35.115033
 1046         h1     35    bbb    H17   1046 0.13554100   1.008000   ; qtot 35.250574
 1047         h1     35    bbb    H18   1047 0.13554100   1.008000   ; qtot 35.386115
 1048         os     35    bbb     O1   1048 -0.62587700  16.000000   ; qtot 34.760238
 1049         hn     35    bbb    H19   1049 0.23982500   1.008000   ; qtot 35.000063
; residue   36 bbb rtp bbb q 1.0
 1050         n4     36    bbb     N1   1050 0.03726400  14.010000   ; qtot 35.037327
 1051         c3     36    bbb     C1   1051 -0.07020100  12.010000   ; qtot 34.967126
 1052         hx     36    bbb     H1   1052 0.12219000   1.008000   ; qtot 35.089316
 1053         hx     36    bbb     H2   1053 0.12219000   1.008000   ; qtot 35.211506
 1054         c3     36    bbb     C2   1054 -0.07020100  12.010000   ; qtot 35.141305
 1055         hx     36    bbb     H3   1055 0.12219000   1.008000   ; qtot 35.263495
 1056         hx     36    bbb     H4   1056 0.12219000   1.008000   ; qtot 35.385685
 1057         c3     36    bbb     C3   1057 -0.39007700  12.010000   ; qtot 34.995608
 1058         hx     36    bbb     H5   1058 0.14940300   1.008000   ; qtot 35.145011
 1059         hx     36    bbb     H6   1059 0.14940300   1.008000   ; qtot 35.294414
 1060         c3     36    bbb     C4   1060 0.18057300  12.010000   ; qtot 35.474987
 1061         hc     36    bbb     H7   1061 0.01788900   1.008000   ; qtot 35.492876
 1062         hc     36    bbb     H8   1062 0.01788900   1.008000   ; qtot 35.510765
 1063         c3     36    bbb     C5   1063 -0.11337700  12.010000   ; qtot 35.397388
 1064         hc     36    bbb     H9   1064 0.09515400   1.008000   ; qtot 35.492542
 1065         hc     36    bbb    H10   1065 0.09515400   1.008000   ; qtot 35.587696
 1066         c3     36    bbb     C6   1066 -0.11337700  12.010000   ; qtot 35.474319
 1067         hc     36    bbb    H11   1067 0.09515400   1.008000   ; qtot 35.569473
 1068         hc     36    bbb    H12   1068 0.09515400   1.008000   ; qtot 35.664627
 1069         c3     36    bbb     C7   1069 0.21842400  12.010000   ; qtot 35.883051
 1070         h1     36    bbb    H13   1070 0.04500300   1.008000   ; qtot 35.928054
 1071         h1     36    bbb    H14   1071 0.04500300   1.008000   ; qtot 35.973057
 1072         c3     36    bbb     C8   1072 -0.06455200  12.010000   ; qtot 35.908505
 1073         h1     36    bbb    H15   1073 0.13554100   1.008000   ; qtot 36.044046
 1074         h1     36    bbb    H16   1074 0.13554100   1.008000   ; qtot 36.179587
 1075         c3     36    bbb     C9   1075 -0.06455200  12.010000   ; qtot 36.115035
 1076         h1     36    bbb    H17   1076 0.13554100   1.008000   ; qtot 36.250576
 1077         h1     36    bbb    H18   1077 0.13554100   1.008000   ; qtot 36.386117
 1078         os     36    bbb     O1   1078 -0.62587700  16.000000   ; qtot 35.760240
 1079         hn     36    bbb    H19   1079 0.23982500   1.008000   ; qtot 36.000065
; residue   37 bbb rtp bbb q 1.0
 1080         n4     37    bbb     N1   1080 0.03726400  14.010000   ; qtot 36.037329
 1081         c3     37    bbb     C1   1081 -0.07020100  12.010000   ; qtot 35.967128
 1082         hx     37    bbb     H1   1082 0.12219000   1.008000   ; qtot 36.089318
 1083         hx     37    bbb     H2   1083 0.12219000   1.008000   ; qtot 36.211508
 1084         c3     37    bbb     C2   1084 -0.07020100  12.010000   ; qtot 36.141307
 1085         hx     37    bbb     H3   1085 0.12219000   1.008000   ; qtot 36.263497
 1086         hx     37    bbb     H4   1086 0.12219000   1.008000   ; qtot 36.385687
 1087         c3     37    bbb     C3   1087 -0.39007700  12.010000   ; qtot 35.995610
 1088         hx     37    bbb     H5   1088 0.14940300   1.008000   ; qtot 36.145013
 1089         hx     37    bbb     H6   1089 0.14940300   1.008000   ; qtot 36.294416
 1090         c3     37    bbb     C4   1090 0.18057300  12.010000   ; qtot 36.474989
 1091         hc     37    bbb     H7   1091 0.01788900   1.008000   ; qtot 36.492878
 1092         hc     37    bbb     H8   1092 0.01788900   1.008000   ; qtot 36.510767
 1093         c3     37    bbb     C5   1093 -0.11337700  12.010000   ; qtot 36.397390
 1094         hc     37    bbb     H9   1094 0.09515400   1.008000   ; qtot 36.492544
 1095         hc     37    bbb    H10   1095 0.09515400   1.008000   ; qtot 36.587698
 1096         c3     37    bbb     C6   1096 -0.11337700  12.010000   ; qtot 36.474321
 1097         hc     37    bbb    H11   1097 0.09515400   1.008000   ; qtot 36.569475
 1098         hc     37    bbb    H12   1098 0.09515400   1.008000   ; qtot 36.664629
 1099         c3     37    bbb     C7   1099 0.21842400  12.010000   ; qtot 36.883053
 1100         h1     37    bbb    H13   1100 0.04500300   1.008000   ; qtot 36.928056
 1101         h1     37    bbb    H14   1101 0.04500300   1.008000   ; qtot 36.973059
 1102         c3     37    bbb     C8   1102 -0.06455200  12.010000   ; qtot 36.908507
 1103         h1     37    bbb    H15   1103 0.13554100   1.008000   ; qtot 37.044048
 1104         h1     37    bbb    H16   1104 0.13554100   1.008000   ; qtot 37.179589
 1105         c3     37    bbb     C9   1105 -0.06455200  12.010000   ; qtot 37.115037
 1106         h1     37    bbb    H17   1106 0.13554100   1.008000   ; qtot 37.250578
 1107         h1     37    bbb    H18   1107 0.13554100   1.008000   ; qtot 37.386119
 1108         os     37    bbb     O1   1108 -0.62587700  16.000000   ; qtot 36.760242
 1109         hn     37    bbb    H19   1109 0.23982500   1.008000   ; qtot 37.000067
; residue   38 bbb rtp bbb q 1.0
 1110         n4     38    bbb     N1   1110 0.03726400  14.010000   ; qtot 37.037331
 1111         c3     38    bbb     C1   1111 -0.07020100  12.010000   ; qtot 36.967130
 1112         hx     38    bbb     H1   1112 0.12219000   1.008000   ; qtot 37.089320
 1113         hx     38    bbb     H2   1113 0.12219000   1.008000   ; qtot 37.211510
 1114         c3     38    bbb     C2   1114 -0.07020100  12.010000   ; qtot 37.141309
 1115         hx     38    bbb     H3   1115 0.12219000   1.008000   ; qtot 37.263499
 1116         hx     38    bbb     H4   1116 0.12219000   1.008000   ; qtot 37.385689
 1117         c3     38    bbb     C3   1117 -0.39007700  12.010000   ; qtot 36.995612
 1118         hx     38    bbb     H5   1118 0.14940300   1.008000   ; qtot 37.145015
 1119         hx     38    bbb     H6   1119 0.14940300   1.008000   ; qtot 37.294418
 1120         c3     38    bbb     C4   1120 0.18057300  12.010000   ; qtot 37.474991
 1121         hc     38    bbb     H7   1121 0.01788900   1.008000   ; qtot 37.492880
 1122         hc     38    bbb     H8   1122 0.01788900   1.008000   ; qtot 37.510769
 1123         c3     38    bbb     C5   1123 -0.11337700  12.010000   ; qtot 37.397392
 1124         hc     38    bbb     H9   1124 0.09515400   1.008000   ; qtot 37.492546
 1125         hc     38    bbb    H10   1125 0.09515400   1.008000   ; qtot 37.587700
 1126         c3     38    bbb     C6   1126 -0.11337700  12.010000   ; qtot 37.474323
 1127         hc     38    bbb    H11   1127 0.09515400   1.008000   ; qtot 37.569477
 1128         hc     38    bbb    H12   1128 0.09515400   1.008000   ; qtot 37.664631
 1129         c3     38    bbb     C7   1129 0.21842400  12.010000   ; qtot 37.883055
 1130         h1     38    bbb    H13   1130 0.04500300   1.008000   ; qtot 37.928058
 1131         h1     38    bbb    H14   1131 0.04500300   1.008000   ; qtot 37.973061
 1132         c3     38    bbb     C8   1132 -0.06455200  12.010000   ; qtot 37.908509
 1133         h1     38    bbb    H15   1133 0.13554100   1.008000   ; qtot 38.044050
 1134         h1     38    bbb    H16   1134 0.13554100   1.008000   ; qtot 38.179591
 1135         c3     38    bbb     C9   1135 -0.06455200  12.010000   ; qtot 38.115039
 1136         h1     38    bbb    H17   1136 0.13554100   1.008000   ; qtot 38.250580
 1137         h1     38    bbb    H18   1137 0.13554100   1.008000   ; qtot 38.386121
 1138         os     38    bbb     O1   1138 -0.62587700  16.000000   ; qtot 37.760244
 1139         hn     38    bbb    H19   1139 0.23982500   1.008000   ; qtot 38.000069
; residue   39 bbb rtp bbb q 1.0
 1140         n4     39    bbb     N1   1140 0.03726400  14.010000   ; qtot 38.037333
 1141         c3     39    bbb     C1   1141 -0.07020100  12.010000   ; qtot 37.967132
 1142         hx     39    bbb     H1   1142 0.12219000   1.008000   ; qtot 38.089322
 1143         hx     39    bbb     H2   1143 0.12219000   1.008000   ; qtot 38.211512
 1144         c3     39    bbb     C2   1144 -0.07020100  12.010000   ; qtot 38.141311
 1145         hx     39    bbb     H3   1145 0.12219000   1.008000   ; qtot 38.263501
 1146         hx     39    bbb     H4   1146 0.12219000   1.008000   ; qtot 38.385691
 1147         c3     39    bbb     C3   1147 -0.39007700  12.010000   ; qtot 37.995614
 1148         hx     39    bbb     H5   1148 0.14940300   1.008000   ; qtot 38.145017
 1149         hx     39    bbb     H6   1149 0.14940300   1.008000   ; qtot 38.294420
 1150         c3     39    bbb     C4   1150 0.18057300  12.010000   ; qtot 38.474993
 1151         hc     39    bbb     H7   1151 0.01788900   1.008000   ; qtot 38.492882
 1152         hc     39    bbb     H8   1152 0.01788900   1.008000   ; qtot 38.510771
 1153         c3     39    bbb     C5   1153 -0.11337700  12.010000   ; qtot 38.397394
 1154         hc     39    bbb     H9   1154 0.09515400   1.008000   ; qtot 38.492548
 1155         hc     39    bbb    H10   1155 0.09515400   1.008000   ; qtot 38.587702
 1156         c3     39    bbb     C6   1156 -0.11337700  12.010000   ; qtot 38.474325
 1157         hc     39    bbb    H11   1157 0.09515400   1.008000   ; qtot 38.569479
 1158         hc     39    bbb    H12   1158 0.09515400   1.008000   ; qtot 38.664633
 1159         c3     39    bbb     C7   1159 0.21842400  12.010000   ; qtot 38.883057
 1160         h1     39    bbb    H13   1160 0.04500300   1.008000   ; qtot 38.928060
 1161         h1     39    bbb    H14   1161 0.04500300   1.008000   ; qtot 38.973063
 1162         c3     39    bbb     C8   1162 -0.06455200  12.010000   ; qtot 38.908511
 1163         h1     39    bbb    H15   1163 0.13554100   1.008000   ; qtot 39.044052
 1164         h1     39    bbb    H16   1164 0.13554100   1.008000   ; qtot 39.179593
 1165         c3     39    bbb     C9   1165 -0.06455200  12.010000   ; qtot 39.115041
 1166         h1     39    bbb    H17   1166 0.13554100   1.008000   ; qtot 39.250582
 1167         h1     39    bbb    H18   1167 0.13554100   1.008000   ; qtot 39.386123
 1168         os     39    bbb     O1   1168 -0.62587700  16.000000   ; qtot 38.760246
 1169         hn     39    bbb    H19   1169 0.23982500   1.008000   ; qtot 39.000071
; residue   40 bbb rtp bbb q 1.0
 1170         n4     40    bbb     N1   1170 0.03726400  14.010000   ; qtot 39.037335
 1171         c3     40    bbb     C1   1171 -0.07020100  12.010000   ; qtot 38.967134
 1172         hx     40    bbb     H1   1172 0.12219000   1.008000   ; qtot 39.089324
 1173         hx     40    bbb     H2   1173 0.12219000   1.008000   ; qtot 39.211514
 1174         c3     40    bbb     C2   1174 -0.07020100  12.010000   ; qtot 39.141313
 1175         hx     40    bbb     H3   1175 0.12219000   1.008000   ; qtot 39.263503
 1176         hx     40    bbb     H4   1176 0.12219000   1.008000   ; qtot 39.385693
 1177         c3     40    bbb     C3   1177 -0.39007700  12.010000   ; qtot 38.995616
 1178         hx     40    bbb     H5   1178 0.14940300   1.008000   ; qtot 39.145019
 1179         hx     40    bbb     H6   1179 0.14940300   1.008000   ; qtot 39.294422
 1180         c3     40    bbb     C4   1180 0.18057300  12.010000   ; qtot 39.474995
 1181         hc     40    bbb     H7   1181 0.01788900   1.008000   ; qtot 39.492884
 1182         hc     40    bbb     H8   1182 0.01788900   1.008000   ; qtot 39.510773
 1183         c3     40    bbb     C5   1183 -0.11337700  12.010000   ; qtot 39.397396
 1184         hc     40    bbb     H9   1184 0.09515400   1.008000   ; qtot 39.492550
 1185         hc     40    bbb    H10   1185 0.09515400   1.008000   ; qtot 39.587704
 1186         c3     40    bbb     C6   1186 -0.11337700  12.010000   ; qtot 39.474327
 1187         hc     40    bbb    H11   1187 0.09515400   1.008000   ; qtot 39.569481
 1188         hc     40    bbb    H12   1188 0.09515400   1.008000   ; qtot 39.664635
 1189         c3     40    bbb     C7   1189 0.21842400  12.010000   ; qtot 39.883059
 1190         h1     40    bbb    H13   1190 0.04500300   1.008000   ; qtot 39.928062
 1191         h1     40    bbb    H14   1191 0.04500300   1.008000   ; qtot 39.973065
 1192         c3     40    bbb     C8   1192 -0.06455200  12.010000   ; qtot 39.908513
 1193         h1     40    bbb    H15   1193 0.13554100   1.008000   ; qtot 40.044054
 1194         h1     40    bbb    H16   1194 0.13554100   1.008000   ; qtot 40.179595
 1195         c3     40    bbb     C9   1195 -0.06455200  12.010000   ; qtot 40.115043
 1196         h1     40    bbb    H17   1196 0.13554100   1.008000   ; qtot 40.250584
 1197         h1     40    bbb    H18   1197 0.13554100   1.008000   ; qtot 40.386125
 1198         os     40    bbb     O1   1198 -0.62587700  16.000000   ; qtot 39.760248
 1199         hn     40    bbb    H19   1199 0.23982500   1.008000   ; qtot 40.000073
; residue   41 bbb rtp bbb q 1.0
 1200         n4     41    bbb     N1   1200 0.03726400  14.010000   ; qtot 40.037337
 1201         c3     41    bbb     C1   1201 -0.07020100  12.010000   ; qtot 39.967136
 1202         hx     41    bbb     H1   1202 0.12219000   1.008000   ; qtot 40.089326
 1203         hx     41    bbb     H2   1203 0.12219000   1.008000   ; qtot 40.211516
 1204         c3     41    bbb     C2   1204 -0.07020100  12.010000   ; qtot 40.141315
 1205         hx     41    bbb     H3   1205 0.12219000   1.008000   ; qtot 40.263505
 1206         hx     41    bbb     H4   1206 0.12219000   1.008000   ; qtot 40.385695
 1207         c3     41    bbb     C3   1207 -0.39007700  12.010000   ; qtot 39.995618
 1208         hx     41    bbb     H5   1208 0.14940300   1.008000   ; qtot 40.145021
 1209         hx     41    bbb     H6   1209 0.14940300   1.008000   ; qtot 40.294424
 1210         c3     41    bbb     C4   1210 0.18057300  12.010000   ; qtot 40.474997
 1211         hc     41    bbb     H7   1211 0.01788900   1.008000   ; qtot 40.492886
 1212         hc     41    bbb     H8   1212 0.01788900   1.008000   ; qtot 40.510775
 1213         c3     41    bbb     C5   1213 -0.11337700  12.010000   ; qtot 40.397398
 1214         hc     41    bbb     H9   1214 0.09515400   1.008000   ; qtot 40.492552
 1215         hc     41    bbb    H10   1215 0.09515400   1.008000   ; qtot 40.587706
 1216         c3     41    bbb     C6   1216 -0.11337700  12.010000   ; qtot 40.474329
 1217         hc     41    bbb    H11   1217 0.09515400   1.008000   ; qtot 40.569483
 1218         hc     41    bbb    H12   1218 0.09515400   1.008000   ; qtot 40.664637
 1219         c3     41    bbb     C7   1219 0.21842400  12.010000   ; qtot 40.883061
 1220         h1     41    bbb    H13   1220 0.04500300   1.008000   ; qtot 40.928064
 1221         h1     41    bbb    H14   1221 0.04500300   1.008000   ; qtot 40.973067
 1222         c3     41    bbb     C8   1222 -0.06455200  12.010000   ; qtot 40.908515
 1223         h1     41    bbb    H15   1223 0.13554100   1.008000   ; qtot 41.044056
 1224         h1     41    bbb    H16   1224 0.13554100   1.008000   ; qtot 41.179597
 1225         c3     41    bbb     C9   1225 -0.06455200  12.010000   ; qtot 41.115045
 1226         h1     41    bbb    H17   1226 0.13554100   1.008000   ; qtot 41.250586
 1227         h1     41    bbb    H18   1227 0.13554100   1.008000   ; qtot 41.386127
 1228         os     41    bbb     O1   1228 -0.62587700  16.000000   ; qtot 40.760250
 1229         hn     41    bbb    H19   1229 0.23982500   1.008000   ; qtot 41.000075
; residue   42 bbb rtp bbb q 1.0
 1230         n4     42    bbb     N1   1230 0.03726400  14.010000   ; qtot 41.037339
 1231         c3     42    bbb     C1   1231 -0.07020100  12.010000   ; qtot 40.967138
 1232         hx     42    bbb     H1   1232 0.12219000   1.008000   ; qtot 41.089328
 1233         hx     42    bbb     H2   1233 0.12219000   1.008000   ; qtot 41.211518
 1234         c3     42    bbb     C2   1234 -0.07020100  12.010000   ; qtot 41.141317
 1235         hx     42    bbb     H3   1235 0.12219000   1.008000   ; qtot 41.263507
 1236         hx     42    bbb     H4   1236 0.12219000   1.008000   ; qtot 41.385697
 1237         c3     42    bbb     C3   1237 -0.39007700  12.010000   ; qtot 40.995620
 1238         hx     42    bbb     H5   1238 0.14940300   1.008000   ; qtot 41.145023
 1239         hx     42    bbb     H6   1239 0.14940300   1.008000   ; qtot 41.294426
 1240         c3     42    bbb     C4   1240 0.18057300  12.010000   ; qtot 41.474999
 1241         hc     42    bbb     H7   1241 0.01788900   1.008000   ; qtot 41.492888
 1242         hc     42    bbb     H8   1242 0.01788900   1.008000   ; qtot 41.510777
 1243         c3     42    bbb     C5   1243 -0.11337700  12.010000   ; qtot 41.397400
 1244         hc     42    bbb     H9   1244 0.09515400   1.008000   ; qtot 41.492554
 1245         hc     42    bbb    H10   1245 0.09515400   1.008000   ; qtot 41.587708
 1246         c3     42    bbb     C6   1246 -0.11337700  12.010000   ; qtot 41.474331
 1247         hc     42    bbb    H11   1247 0.09515400   1.008000   ; qtot 41.569485
 1248         hc     42    bbb    H12   1248 0.09515400   1.008000   ; qtot 41.664639
 1249         c3     42    bbb     C7   1249 0.21842400  12.010000   ; qtot 41.883063
 1250         h1     42    bbb    H13   1250 0.04500300   1.008000   ; qtot 41.928066
 1251         h1     42    bbb    H14   1251 0.04500300   1.008000   ; qtot 41.973069
 1252         c3     42    bbb     C8   1252 -0.06455200  12.010000   ; qtot 41.908517
 1253         h1     42    bbb    H15   1253 0.13554100   1.008000   ; qtot 42.044058
 1254         h1     42    bbb    H16   1254 0.13554100   1.008000   ; qtot 42.179599
 1255         c3     42    bbb     C9   1255 -0.06455200  12.010000   ; qtot 42.115047
 1256         h1     42    bbb    H17   1256 0.13554100   1.008000   ; qtot 42.250588
 1257         h1     42    bbb    H18   1257 0.13554100   1.008000   ; qtot 42.386129
 1258         os     42    bbb     O1   1258 -0.62587700  16.000000   ; qtot 41.760252
 1259         hn     42    bbb    H19   1259 0.23982500   1.008000   ; qtot 42.000077
; residue   43 bbb rtp bbb q 1.0
 1260         n4     43    bbb     N1   1260 0.03726400  14.010000   ; qtot 42.037341
 1261         c3     43    bbb     C1   1261 -0.07020100  12.010000   ; qtot 41.967140
 1262         hx     43    bbb     H1   1262 0.12219000   1.008000   ; qtot 42.089330
 1263         hx     43    bbb     H2   1263 0.12219000   1.008000   ; qtot 42.211520
 1264         c3     43    bbb     C2   1264 -0.07020100  12.010000   ; qtot 42.141319
 1265         hx     43    bbb     H3   1265 0.12219000   1.008000   ; qtot 42.263509
 1266         hx     43    bbb     H4   1266 0.12219000   1.008000   ; qtot 42.385699
 1267         c3     43    bbb     C3   1267 -0.39007700  12.010000   ; qtot 41.995622
 1268         hx     43    bbb     H5   1268 0.14940300   1.008000   ; qtot 42.145025
 1269         hx     43    bbb     H6   1269 0.14940300   1.008000   ; qtot 42.294428
 1270         c3     43    bbb     C4   1270 0.18057300  12.010000   ; qtot 42.475001
 1271         hc     43    bbb     H7   1271 0.01788900   1.008000   ; qtot 42.492890
 1272         hc     43    bbb     H8   1272 0.01788900   1.008000   ; qtot 42.510779
 1273         c3     43    bbb     C5   1273 -0.11337700  12.010000   ; qtot 42.397402
 1274         hc     43    bbb     H9   1274 0.09515400   1.008000   ; qtot 42.492556
 1275         hc     43    bbb    H10   1275 0.09515400   1.008000   ; qtot 42.587710
 1276         c3     43    bbb     C6   1276 -0.11337700  12.010000   ; qtot 42.474333
 1277         hc     43    bbb    H11   1277 0.09515400   1.008000   ; qtot 42.569487
 1278         hc     43    bbb    H12   1278 0.09515400   1.008000   ; qtot 42.664641
 1279         c3     43    bbb     C7   1279 0.21842400  12.010000   ; qtot 42.883065
 1280         h1     43    bbb    H13   1280 0.04500300   1.008000   ; qtot 42.928068
 1281         h1     43    bbb    H14   1281 0.04500300   1.008000   ; qtot 42.973071
 1282         c3     43    bbb     C8   1282 -0.06455200  12.010000   ; qtot 42.908519
 1283         h1     43    bbb    H15   1283 0.13554100   1.008000   ; qtot 43.044060
 1284         h1     43    bbb    H16   1284 0.13554100   1.008000   ; qtot 43.179601
 1285         c3     43    bbb     C9   1285 -0.06455200  12.010000   ; qtot 43.115049
 1286         h1     43    bbb    H17   1286 0.13554100   1.008000   ; qtot 43.250590
 1287         h1     43    bbb    H18   1287 0.13554100   1.008000   ; qtot 43.386131
 1288         os     43    bbb     O1   1288 -0.62587700  16.000000   ; qtot 42.760254
 1289         hn     43    bbb    H19   1289 0.23982500   1.008000   ; qtot 43.000079
; residue   44 bbb rtp bbb q 1.0
 1290         n4     44    bbb     N1   1290 0.03726400  14.010000   ; qtot 43.037343
 1291         c3     44    bbb     C1   1291 -0.07020100  12.010000   ; qtot 42.967142
 1292         hx     44    bbb     H1   1292 0.12219000   1.008000   ; qtot 43.089332
 1293         hx     44    bbb     H2   1293 0.12219000   1.008000   ; qtot 43.211522
 1294         c3     44    bbb     C2   1294 -0.07020100  12.010000   ; qtot 43.141321
 1295         hx     44    bbb     H3   1295 0.12219000   1.008000   ; qtot 43.263511
 1296         hx     44    bbb     H4   1296 0.12219000   1.008000   ; qtot 43.385701
 1297         c3     44    bbb     C3   1297 -0.39007700  12.010000   ; qtot 42.995624
 1298         hx     44    bbb     H5   1298 0.14940300   1.008000   ; qtot 43.145027
 1299         hx     44    bbb     H6   1299 0.14940300   1.008000   ; qtot 43.294430
 1300         c3     44    bbb     C4   1300 0.18057300  12.010000   ; qtot 43.475003
 1301         hc     44    bbb     H7   1301 0.01788900   1.008000   ; qtot 43.492892
 1302         hc     44    bbb     H8   1302 0.01788900   1.008000   ; qtot 43.510781
 1303         c3     44    bbb     C5   1303 -0.11337700  12.010000   ; qtot 43.397404
 1304         hc     44    bbb     H9   1304 0.09515400   1.008000   ; qtot 43.492558
 1305         hc     44    bbb    H10   1305 0.09515400   1.008000   ; qtot 43.587712
 1306         c3     44    bbb     C6   1306 -0.11337700  12.010000   ; qtot 43.474335
 1307         hc     44    bbb    H11   1307 0.09515400   1.008000   ; qtot 43.569489
 1308         hc     44    bbb    H12   1308 0.09515400   1.008000   ; qtot 43.664643
 1309         c3     44    bbb     C7   1309 0.21842400  12.010000   ; qtot 43.883067
 1310         h1     44    bbb    H13   1310 0.04500300   1.008000   ; qtot 43.928070
 1311         h1     44    bbb    H14   1311 0.04500300   1.008000   ; qtot 43.973073
 1312         c3     44    bbb     C8   1312 -0.06455200  12.010000   ; qtot 43.908521
 1313         h1     44    bbb    H15   1313 0.13554100   1.008000   ; qtot 44.044062
 1314         h1     44    bbb    H16   1314 0.13554100   1.008000   ; qtot 44.179603
 1315         c3     44    bbb     C9   1315 -0.06455200  12.010000   ; qtot 44.115051
 1316         h1     44    bbb    H17   1316 0.13554100   1.008000   ; qtot 44.250592
 1317         h1     44    bbb    H18   1317 0.13554100   1.008000   ; qtot 44.386133
 1318         os     44    bbb     O1   1318 -0.62587700  16.000000   ; qtot 43.760256
 1319         hn     44    bbb    H19   1319 0.23982500   1.008000   ; qtot 44.000081
; residue   45 bbb rtp bbb q 1.0
 1320         n4     45    bbb     N1   1320 0.03726400  14.010000   ; qtot 44.037345
 1321         c3     45    bbb     C1   1321 -0.07020100  12.010000   ; qtot 43.967144
 1322         hx     45    bbb     H1   1322 0.12219000   1.008000   ; qtot 44.089334
 1323         hx     45    bbb     H2   1323 0.12219000   1.008000   ; qtot 44.211524
 1324         c3     45    bbb     C2   1324 -0.07020100  12.010000   ; qtot 44.141323
 1325         hx     45    bbb     H3   1325 0.12219000   1.008000   ; qtot 44.263513
 1326         hx     45    bbb     H4   1326 0.12219000   1.008000   ; qtot 44.385703
 1327         c3     45    bbb     C3   1327 -0.39007700  12.010000   ; qtot 43.995626
 1328         hx     45    bbb     H5   1328 0.14940300   1.008000   ; qtot 44.145029
 1329         hx     45    bbb     H6   1329 0.14940300   1.008000   ; qtot 44.294432
 1330         c3     45    bbb     C4   1330 0.18057300  12.010000   ; qtot 44.475005
 1331         hc     45    bbb     H7   1331 0.01788900   1.008000   ; qtot 44.492894
 1332         hc     45    bbb     H8   1332 0.01788900   1.008000   ; qtot 44.510783
 1333         c3     45    bbb     C5   1333 -0.11337700  12.010000   ; qtot 44.397406
 1334         hc     45    bbb     H9   1334 0.09515400   1.008000   ; qtot 44.492560
 1335         hc     45    bbb    H10   1335 0.09515400   1.008000   ; qtot 44.587714
 1336         c3     45    bbb     C6   1336 -0.11337700  12.010000   ; qtot 44.474337
 1337         hc     45    bbb    H11   1337 0.09515400   1.008000   ; qtot 44.569491
 1338         hc     45    bbb    H12   1338 0.09515400   1.008000   ; qtot 44.664645
 1339         c3     45    bbb     C7   1339 0.21842400  12.010000   ; qtot 44.883069
 1340         h1     45    bbb    H13   1340 0.04500300   1.008000   ; qtot 44.928072
 1341         h1     45    bbb    H14   1341 0.04500300   1.008000   ; qtot 44.973075
 1342         c3     45    bbb     C8   1342 -0.06455200  12.010000   ; qtot 44.908523
 1343         h1     45    bbb    H15   1343 0.13554100   1.008000   ; qtot 45.044064
 1344         h1     45    bbb    H16   1344 0.13554100   1.008000   ; qtot 45.179605
 1345         c3     45    bbb     C9   1345 -0.06455200  12.010000   ; qtot 45.115053
 1346         h1     45    bbb    H17   1346 0.13554100   1.008000   ; qtot 45.250594
 1347         h1     45    bbb    H18   1347 0.13554100   1.008000   ; qtot 45.386135
 1348         os     45    bbb     O1   1348 -0.62587700  16.000000   ; qtot 44.760258
 1349         hn     45    bbb    H19   1349 0.23982500   1.008000   ; qtot 45.000083
; residue   46 bbb rtp bbb q 1.0
 1350         n4     46    bbb     N1   1350 0.03726400  14.010000   ; qtot 45.037347
 1351         c3     46    bbb     C1   1351 -0.07020100  12.010000   ; qtot 44.967146
 1352         hx     46    bbb     H1   1352 0.12219000   1.008000   ; qtot 45.089336
 1353         hx     46    bbb     H2   1353 0.12219000   1.008000   ; qtot 45.211526
 1354         c3     46    bbb     C2   1354 -0.07020100  12.010000   ; qtot 45.141325
 1355         hx     46    bbb     H3   1355 0.12219000   1.008000   ; qtot 45.263515
 1356         hx     46    bbb     H4   1356 0.12219000   1.008000   ; qtot 45.385705
 1357         c3     46    bbb     C3   1357 -0.39007700  12.010000   ; qtot 44.995628
 1358         hx     46    bbb     H5   1358 0.14940300   1.008000   ; qtot 45.145031
 1359         hx     46    bbb     H6   1359 0.14940300   1.008000   ; qtot 45.294434
 1360         c3     46    bbb     C4   1360 0.18057300  12.010000   ; qtot 45.475007
 1361         hc     46    bbb     H7   1361 0.01788900   1.008000   ; qtot 45.492896
 1362         hc     46    bbb     H8   1362 0.01788900   1.008000   ; qtot 45.510785
 1363         c3     46    bbb     C5   1363 -0.11337700  12.010000   ; qtot 45.397408
 1364         hc     46    bbb     H9   1364 0.09515400   1.008000   ; qtot 45.492562
 1365         hc     46    bbb    H10   1365 0.09515400   1.008000   ; qtot 45.587716
 1366         c3     46    bbb     C6   1366 -0.11337700  12.010000   ; qtot 45.474339
 1367         hc     46    bbb    H11   1367 0.09515400   1.008000   ; qtot 45.569493
 1368         hc     46    bbb    H12   1368 0.09515400   1.008000   ; qtot 45.664647
 1369         c3     46    bbb     C7   1369 0.21842400  12.010000   ; qtot 45.883071
 1370         h1     46    bbb    H13   1370 0.04500300   1.008000   ; qtot 45.928074
 1371         h1     46    bbb    H14   1371 0.04500300   1.008000   ; qtot 45.973077
 1372         c3     46    bbb     C8   1372 -0.06455200  12.010000   ; qtot 45.908525
 1373         h1     46    bbb    H15   1373 0.13554100   1.008000   ; qtot 46.044066
 1374         h1     46    bbb    H16   1374 0.13554100   1.008000   ; qtot 46.179607
 1375         c3     46    bbb     C9   1375 -0.06455200  12.010000   ; qtot 46.115055
 1376         h1     46    bbb    H17   1376 0.13554100   1.008000   ; qtot 46.250596
 1377         h1     46    bbb    H18   1377 0.13554100   1.008000   ; qtot 46.386137
 1378         os     46    bbb     O1   1378 -0.62587700  16.000000   ; qtot 45.760260
 1379         hn     46    bbb    H19   1379 0.23982500   1.008000   ; qtot 46.000085
; residue   47 bbb rtp bbb q 1.0
 1380         n4     47    bbb     N1   1380 0.03726400  14.010000   ; qtot 46.037349
 1381         c3     47    bbb     C1   1381 -0.07020100  12.010000   ; qtot 45.967148
 1382         hx     47    bbb     H1   1382 0.12219000   1.008000   ; qtot 46.089338
 1383         hx     47    bbb     H2   1383 0.12219000   1.008000   ; qtot 46.211528
 1384         c3     47    bbb     C2   1384 -0.07020100  12.010000   ; qtot 46.141327
 1385         hx     47    bbb     H3   1385 0.12219000   1.008000   ; qtot 46.263517
 1386         hx     47    bbb     H4   1386 0.12219000   1.008000   ; qtot 46.385707
 1387         c3     47    bbb     C3   1387 -0.39007700  12.010000   ; qtot 45.995630
 1388         hx     47    bbb     H5   1388 0.14940300   1.008000   ; qtot 46.145033
 1389         hx     47    bbb     H6   1389 0.14940300   1.008000   ; qtot 46.294436
 1390         c3     47    bbb     C4   1390 0.18057300  12.010000   ; qtot 46.475009
 1391         hc     47    bbb     H7   1391 0.01788900   1.008000   ; qtot 46.492898
 1392         hc     47    bbb     H8   1392 0.01788900   1.008000   ; qtot 46.510787
 1393         c3     47    bbb     C5   1393 -0.11337700  12.010000   ; qtot 46.397410
 1394         hc     47    bbb     H9   1394 0.09515400   1.008000   ; qtot 46.492564
 1395         hc     47    bbb    H10   1395 0.09515400   1.008000   ; qtot 46.587718
 1396         c3     47    bbb     C6   1396 -0.11337700  12.010000   ; qtot 46.474341
 1397         hc     47    bbb    H11   1397 0.09515400   1.008000   ; qtot 46.569495
 1398         hc     47    bbb    H12   1398 0.09515400   1.008000   ; qtot 46.664649
 1399         c3     47    bbb     C7   1399 0.21842400  12.010000   ; qtot 46.883073
 1400         h1     47    bbb    H13   1400 0.04500300   1.008000   ; qtot 46.928076
 1401         h1     47    bbb    H14   1401 0.04500300   1.008000   ; qtot 46.973079
 1402         c3     47    bbb     C8   1402 -0.06455200  12.010000   ; qtot 46.908527
 1403         h1     47    bbb    H15   1403 0.13554100   1.008000   ; qtot 47.044068
 1404         h1     47    bbb    H16   1404 0.13554100   1.008000   ; qtot 47.179609
 1405         c3     47    bbb     C9   1405 -0.06455200  12.010000   ; qtot 47.115057
 1406         h1     47    bbb    H17   1406 0.13554100   1.008000   ; qtot 47.250598
 1407         h1     47    bbb    H18   1407 0.13554100   1.008000   ; qtot 47.386139
 1408         os     47    bbb     O1   1408 -0.62587700  16.000000   ; qtot 46.760262
 1409         hn     47    bbb    H19   1409 0.23982500   1.008000   ; qtot 47.000087
; residue   48 bbb rtp bbb q 1.0
 1410         n4     48    bbb     N1   1410 0.03726400  14.010000   ; qtot 47.037351
 1411         c3     48    bbb     C1   1411 -0.07020100  12.010000   ; qtot 46.967150
 1412         hx     48    bbb     H1   1412 0.12219000   1.008000   ; qtot 47.089340
 1413         hx     48    bbb     H2   1413 0.12219000   1.008000   ; qtot 47.211530
 1414         c3     48    bbb     C2   1414 -0.07020100  12.010000   ; qtot 47.141329
 1415         hx     48    bbb     H3   1415 0.12219000   1.008000   ; qtot 47.263519
 1416         hx     48    bbb     H4   1416 0.12219000   1.008000   ; qtot 47.385709
 1417         c3     48    bbb     C3   1417 -0.39007700  12.010000   ; qtot 46.995632
 1418         hx     48    bbb     H5   1418 0.14940300   1.008000   ; qtot 47.145035
 1419         hx     48    bbb     H6   1419 0.14940300   1.008000   ; qtot 47.294438
 1420         c3     48    bbb     C4   1420 0.18057300  12.010000   ; qtot 47.475011
 1421         hc     48    bbb     H7   1421 0.01788900   1.008000   ; qtot 47.492900
 1422         hc     48    bbb     H8   1422 0.01788900   1.008000   ; qtot 47.510789
 1423         c3     48    bbb     C5   1423 -0.11337700  12.010000   ; qtot 47.397412
 1424         hc     48    bbb     H9   1424 0.09515400   1.008000   ; qtot 47.492566
 1425         hc     48    bbb    H10   1425 0.09515400   1.008000   ; qtot 47.587720
 1426         c3     48    bbb     C6   1426 -0.11337700  12.010000   ; qtot 47.474343
 1427         hc     48    bbb    H11   1427 0.09515400   1.008000   ; qtot 47.569497
 1428         hc     48    bbb    H12   1428 0.09515400   1.008000   ; qtot 47.664651
 1429         c3     48    bbb     C7   1429 0.21842400  12.010000   ; qtot 47.883075
 1430         h1     48    bbb    H13   1430 0.04500300   1.008000   ; qtot 47.928078
 1431         h1     48    bbb    H14   1431 0.04500300   1.008000   ; qtot 47.973081
 1432         c3     48    bbb     C8   1432 -0.06455200  12.010000   ; qtot 47.908529
 1433         h1     48    bbb    H15   1433 0.13554100   1.008000   ; qtot 48.044070
 1434         h1     48    bbb    H16   1434 0.13554100   1.008000   ; qtot 48.179611
 1435         c3     48    bbb     C9   1435 -0.06455200  12.010000   ; qtot 48.115059
 1436         h1     48    bbb    H17   1436 0.13554100   1.008000   ; qtot 48.250600
 1437         h1     48    bbb    H18   1437 0.13554100   1.008000   ; qtot 48.386141
 1438         os     48    bbb     O1   1438 -0.62587700  16.000000   ; qtot 47.760264
 1439         hn     48    bbb    H19   1439 0.23982500   1.008000   ; qtot 48.000089
; residue   49 bbb rtp bbb q 1.0
 1440         n4     49    bbb     N1   1440 0.03726400  14.010000   ; qtot 48.037353
 1441         c3     49    bbb     C1   1441 -0.07020100  12.010000   ; qtot 47.967152
 1442         hx     49    bbb     H1   1442 0.12219000   1.008000   ; qtot 48.089342
 1443         hx     49    bbb     H2   1443 0.12219000   1.008000   ; qtot 48.211532
 1444         c3     49    bbb     C2   1444 -0.07020100  12.010000   ; qtot 48.141331
 1445         hx     49    bbb     H3   1445 0.12219000   1.008000   ; qtot 48.263521
 1446         hx     49    bbb     H4   1446 0.12219000   1.008000   ; qtot 48.385711
 1447         c3     49    bbb     C3   1447 -0.39007700  12.010000   ; qtot 47.995634
 1448         hx     49    bbb     H5   1448 0.14940300   1.008000   ; qtot 48.145037
 1449         hx     49    bbb     H6   1449 0.14940300   1.008000   ; qtot 48.294440
 1450         c3     49    bbb     C4   1450 0.18057300  12.010000   ; qtot 48.475013
 1451         hc     49    bbb     H7   1451 0.01788900   1.008000   ; qtot 48.492902
 1452         hc     49    bbb     H8   1452 0.01788900   1.008000   ; qtot 48.510791
 1453         c3     49    bbb     C5   1453 -0.11337700  12.010000   ; qtot 48.397414
 1454         hc     49    bbb     H9   1454 0.09515400   1.008000   ; qtot 48.492568
 1455         hc     49    bbb    H10   1455 0.09515400   1.008000   ; qtot 48.587722
 1456         c3     49    bbb     C6   1456 -0.11337700  12.010000   ; qtot 48.474345
 1457         hc     49    bbb    H11   1457 0.09515400   1.008000   ; qtot 48.569499
 1458         hc     49    bbb    H12   1458 0.09515400   1.008000   ; qtot 48.664653
 1459         c3     49    bbb     C7   1459 0.21842400  12.010000   ; qtot 48.883077
 1460         h1     49    bbb    H13   1460 0.04500300   1.008000   ; qtot 48.928080
 1461         h1     49    bbb    H14   1461 0.04500300   1.008000   ; qtot 48.973083
 1462         c3     49    bbb     C8   1462 -0.06455200  12.010000   ; qtot 48.908531
 1463         h1     49    bbb    H15   1463 0.13554100   1.008000   ; qtot 49.044072
 1464         h1     49    bbb    H16   1464 0.13554100   1.008000   ; qtot 49.179613
 1465         c3     49    bbb     C9   1465 -0.06455200  12.010000   ; qtot 49.115061
 1466         h1     49    bbb    H17   1466 0.13554100   1.008000   ; qtot 49.250602
 1467         h1     49    bbb    H18   1467 0.13554100   1.008000   ; qtot 49.386143
 1468         os     49    bbb     O1   1468 -0.62587700  16.000000   ; qtot 48.760266
 1469         hn     49    bbb    H19   1469 0.23982500   1.008000   ; qtot 49.000091
; residue   50 bbb rtp bbb q 1.0
 1470         n4     50    bbb     N1   1470 0.03726400  14.010000   ; qtot 49.037355
 1471         c3     50    bbb     C1   1471 -0.07020100  12.010000   ; qtot 48.967154
 1472         hx     50    bbb     H1   1472 0.12219000   1.008000   ; qtot 49.089344
 1473         hx     50    bbb     H2   1473 0.12219000   1.008000   ; qtot 49.211534
 1474         c3     50    bbb     C2   1474 -0.07020100  12.010000   ; qtot 49.141333
 1475         hx     50    bbb     H3   1475 0.12219000   1.008000   ; qtot 49.263523
 1476         hx     50    bbb     H4   1476 0.12219000   1.008000   ; qtot 49.385713
 1477         c3     50    bbb     C3   1477 -0.39007700  12.010000   ; qtot 48.995636
 1478         hx     50    bbb     H5   1478 0.14940300   1.008000   ; qtot 49.145039
 1479         hx     50    bbb     H6   1479 0.14940300   1.008000   ; qtot 49.294442
 1480         c3     50    bbb     C4   1480 0.18057300  12.010000   ; qtot 49.475015
 1481         hc     50    bbb     H7   1481 0.01788900   1.008000   ; qtot 49.492904
 1482         hc     50    bbb     H8   1482 0.01788900   1.008000   ; qtot 49.510793
 1483         c3     50    bbb     C5   1483 -0.11337700  12.010000   ; qtot 49.397416
 1484         hc     50    bbb     H9   1484 0.09515400   1.008000   ; qtot 49.492570
 1485         hc     50    bbb    H10   1485 0.09515400   1.008000   ; qtot 49.587724
 1486         c3     50    bbb     C6   1486 -0.11337700  12.010000   ; qtot 49.474347
 1487         hc     50    bbb    H11   1487 0.09515400   1.008000   ; qtot 49.569501
 1488         hc     50    bbb    H12   1488 0.09515400   1.008000   ; qtot 49.664655
 1489         c3     50    bbb     C7   1489 0.21842400  12.010000   ; qtot 49.883079
 1490         h1     50    bbb    H13   1490 0.04500300   1.008000   ; qtot 49.928082
 1491         h1     50    bbb    H14   1491 0.04500300   1.008000   ; qtot 49.973085
 1492         c3     50    bbb     C8   1492 -0.06455200  12.010000   ; qtot 49.908533
 1493         h1     50    bbb    H15   1493 0.13554100   1.008000   ; qtot 50.044074
 1494         h1     50    bbb    H16   1494 0.13554100   1.008000   ; qtot 50.179615
 1495         c3     50    bbb     C9   1495 -0.06455200  12.010000   ; qtot 50.115063
 1496         h1     50    bbb    H17   1496 0.13554100   1.008000   ; qtot 50.250604
 1497         h1     50    bbb    H18   1497 0.13554100   1.008000   ; qtot 50.386145
 1498         os     50    bbb     O1   1498 -0.62587700  16.000000   ; qtot 49.760268
 1499         hn     50    bbb    H19   1499 0.23982500   1.008000   ; qtot 50.000093
; residue   51 bbb rtp bbb q 1.0
 1500         n4     51    bbb     N1   1500 0.03726400  14.010000   ; qtot 50.037357
 1501         c3     51    bbb     C1   1501 -0.07020100  12.010000   ; qtot 49.967156
 1502         hx     51    bbb     H1   1502 0.12219000   1.008000   ; qtot 50.089346
 1503         hx     51    bbb     H2   1503 0.12219000   1.008000   ; qtot 50.211536
 1504         c3     51    bbb     C2   1504 -0.07020100  12.010000   ; qtot 50.141335
 1505         hx     51    bbb     H3   1505 0.12219000   1.008000   ; qtot 50.263525
 1506         hx     51    bbb     H4   1506 0.12219000   1.008000   ; qtot 50.385715
 1507         c3     51    bbb     C3   1507 -0.39007700  12.010000   ; qtot 49.995638
 1508         hx     51    bbb     H5   1508 0.14940300   1.008000   ; qtot 50.145041
 1509         hx     51    bbb     H6   1509 0.14940300   1.008000   ; qtot 50.294444
 1510         c3     51    bbb     C4   1510 0.18057300  12.010000   ; qtot 50.475017
 1511         hc     51    bbb     H7   1511 0.01788900   1.008000   ; qtot 50.492906
 1512         hc     51    bbb     H8   1512 0.01788900   1.008000   ; qtot 50.510795
 1513         c3     51    bbb     C5   1513 -0.11337700  12.010000   ; qtot 50.397418
 1514         hc     51    bbb     H9   1514 0.09515400   1.008000   ; qtot 50.492572
 1515         hc     51    bbb    H10   1515 0.09515400   1.008000   ; qtot 50.587726
 1516         c3     51    bbb     C6   1516 -0.11337700  12.010000   ; qtot 50.474349
 1517         hc     51    bbb    H11   1517 0.09515400   1.008000   ; qtot 50.569503
 1518         hc     51    bbb    H12   1518 0.09515400   1.008000   ; qtot 50.664657
 1519         c3     51    bbb     C7   1519 0.21842400  12.010000   ; qtot 50.883081
 1520         h1     51    bbb    H13   1520 0.04500300   1.008000   ; qtot 50.928084
 1521         h1     51    bbb    H14   1521 0.04500300   1.008000   ; qtot 50.973087
 1522         c3     51    bbb     C8   1522 -0.06455200  12.010000   ; qtot 50.908535
 1523         h1     51    bbb    H15   1523 0.13554100   1.008000   ; qtot 51.044076
 1524         h1     51    bbb    H16   1524 0.13554100   1.008000   ; qtot 51.179617
 1525         c3     51    bbb     C9   1525 -0.06455200  12.010000   ; qtot 51.115065
 1526         h1     51    bbb    H17   1526 0.13554100   1.008000   ; qtot 51.250606
 1527         h1     51    bbb    H18   1527 0.13554100   1.008000   ; qtot 51.386147
 1528         os     51    bbb     O1   1528 -0.62587700  16.000000   ; qtot 50.760270
 1529         hn     51    bbb    H19   1529 0.23982500   1.008000   ; qtot 51.000095
; residue   52 bbb rtp bbb q 1.0
 1530         n4     52    bbb     N1   1530 0.03726400  14.010000   ; qtot 51.037359
 1531         c3     52    bbb     C1   1531 -0.07020100  12.010000   ; qtot 50.967158
 1532         hx     52    bbb     H1   1532 0.12219000   1.008000   ; qtot 51.089348
 1533         hx     52    bbb     H2   1533 0.12219000   1.008000   ; qtot 51.211538
 1534         c3     52    bbb     C2   1534 -0.07020100  12.010000   ; qtot 51.141337
 1535         hx     52    bbb     H3   1535 0.12219000   1.008000   ; qtot 51.263527
 1536         hx     52    bbb     H4   1536 0.12219000   1.008000   ; qtot 51.385717
 1537         c3     52    bbb     C3   1537 -0.39007700  12.010000   ; qtot 50.995640
 1538         hx     52    bbb     H5   1538 0.14940300   1.008000   ; qtot 51.145043
 1539         hx     52    bbb     H6   1539 0.14940300   1.008000   ; qtot 51.294446
 1540         c3     52    bbb     C4   1540 0.18057300  12.010000   ; qtot 51.475019
 1541         hc     52    bbb     H7   1541 0.01788900   1.008000   ; qtot 51.492908
 1542         hc     52    bbb     H8   1542 0.01788900   1.008000   ; qtot 51.510797
 1543         c3     52    bbb     C5   1543 -0.11337700  12.010000   ; qtot 51.397420
 1544         hc     52    bbb     H9   1544 0.09515400   1.008000   ; qtot 51.492574
 1545         hc     52    bbb    H10   1545 0.09515400   1.008000   ; qtot 51.587728
 1546         c3     52    bbb     C6   1546 -0.11337700  12.010000   ; qtot 51.474351
 1547         hc     52    bbb    H11   1547 0.09515400   1.008000   ; qtot 51.569505
 1548         hc     52    bbb    H12   1548 0.09515400   1.008000   ; qtot 51.664659
 1549         c3     52    bbb     C7   1549 0.21842400  12.010000   ; qtot 51.883083
 1550         h1     52    bbb    H13   1550 0.04500300   1.008000   ; qtot 51.928086
 1551         h1     52    bbb    H14   1551 0.04500300   1.008000   ; qtot 51.973089
 1552         c3     52    bbb     C8   1552 -0.06455200  12.010000   ; qtot 51.908537
 1553         h1     52    bbb    H15   1553 0.13554100   1.008000   ; qtot 52.044078
 1554         h1     52    bbb    H16   1554 0.13554100   1.008000   ; qtot 52.179619
 1555         c3     52    bbb     C9   1555 -0.06455200  12.010000   ; qtot 52.115067
 1556         h1     52    bbb    H17   1556 0.13554100   1.008000   ; qtot 52.250608
 1557         h1     52    bbb    H18   1557 0.13554100   1.008000   ; qtot 52.386149
 1558         os     52    bbb     O1   1558 -0.62587700  16.000000   ; qtot 51.760272
 1559         hn     52    bbb    H19   1559 0.23982500   1.008000   ; qtot 52.000097
; residue   53 bbb rtp bbb q 1.0
 1560         n4     53    bbb     N1   1560 0.03726400  14.010000   ; qtot 52.037361
 1561         c3     53    bbb     C1   1561 -0.07020100  12.010000   ; qtot 51.967160
 1562         hx     53    bbb     H1   1562 0.12219000   1.008000   ; qtot 52.089350
 1563         hx     53    bbb     H2   1563 0.12219000   1.008000   ; qtot 52.211540
 1564         c3     53    bbb     C2   1564 -0.07020100  12.010000   ; qtot 52.141339
 1565         hx     53    bbb     H3   1565 0.12219000   1.008000   ; qtot 52.263529
 1566         hx     53    bbb     H4   1566 0.12219000   1.008000   ; qtot 52.385719
 1567         c3     53    bbb     C3   1567 -0.39007700  12.010000   ; qtot 51.995642
 1568         hx     53    bbb     H5   1568 0.14940300   1.008000   ; qtot 52.145045
 1569         hx     53    bbb     H6   1569 0.14940300   1.008000   ; qtot 52.294448
 1570         c3     53    bbb     C4   1570 0.18057300  12.010000   ; qtot 52.475021
 1571         hc     53    bbb     H7   1571 0.01788900   1.008000   ; qtot 52.492910
 1572         hc     53    bbb     H8   1572 0.01788900   1.008000   ; qtot 52.510799
 1573         c3     53    bbb     C5   1573 -0.11337700  12.010000   ; qtot 52.397422
 1574         hc     53    bbb     H9   1574 0.09515400   1.008000   ; qtot 52.492576
 1575         hc     53    bbb    H10   1575 0.09515400   1.008000   ; qtot 52.587730
 1576         c3     53    bbb     C6   1576 -0.11337700  12.010000   ; qtot 52.474353
 1577         hc     53    bbb    H11   1577 0.09515400   1.008000   ; qtot 52.569507
 1578         hc     53    bbb    H12   1578 0.09515400   1.008000   ; qtot 52.664661
 1579         c3     53    bbb     C7   1579 0.21842400  12.010000   ; qtot 52.883085
 1580         h1     53    bbb    H13   1580 0.04500300   1.008000   ; qtot 52.928088
 1581         h1     53    bbb    H14   1581 0.04500300   1.008000   ; qtot 52.973091
 1582         c3     53    bbb     C8   1582 -0.06455200  12.010000   ; qtot 52.908539
 1583         h1     53    bbb    H15   1583 0.13554100   1.008000   ; qtot 53.044080
 1584         h1     53    bbb    H16   1584 0.13554100   1.008000   ; qtot 53.179621
 1585         c3     53    bbb     C9   1585 -0.06455200  12.010000   ; qtot 53.115069
 1586         h1     53    bbb    H17   1586 0.13554100   1.008000   ; qtot 53.250610
 1587         h1     53    bbb    H18   1587 0.13554100   1.008000   ; qtot 53.386151
 1588         os     53    bbb     O1   1588 -0.62587700  16.000000   ; qtot 52.760274
 1589         hn     53    bbb    H19   1589 0.23982500   1.008000   ; qtot 53.000099
; residue   54 bbb rtp bbb q 1.0
 1590         n4     54    bbb     N1   1590 0.03726400  14.010000   ; qtot 53.037363
 1591         c3     54    bbb     C1   1591 -0.07020100  12.010000   ; qtot 52.967162
 1592         hx     54    bbb     H1   1592 0.12219000   1.008000   ; qtot 53.089352
 1593         hx     54    bbb     H2   1593 0.12219000   1.008000   ; qtot 53.211542
 1594         c3     54    bbb     C2   1594 -0.07020100  12.010000   ; qtot 53.141341
 1595         hx     54    bbb     H3   1595 0.12219000   1.008000   ; qtot 53.263531
 1596         hx     54    bbb     H4   1596 0.12219000   1.008000   ; qtot 53.385721
 1597         c3     54    bbb     C3   1597 -0.39007700  12.010000   ; qtot 52.995644
 1598         hx     54    bbb     H5   1598 0.14940300   1.008000   ; qtot 53.145047
 1599         hx     54    bbb     H6   1599 0.14940300   1.008000   ; qtot 53.294450
 1600         c3     54    bbb     C4   1600 0.18057300  12.010000   ; qtot 53.475023
 1601         hc     54    bbb     H7   1601 0.01788900   1.008000   ; qtot 53.492912
 1602         hc     54    bbb     H8   1602 0.01788900   1.008000   ; qtot 53.510801
 1603         c3     54    bbb     C5   1603 -0.11337700  12.010000   ; qtot 53.397424
 1604         hc     54    bbb     H9   1604 0.09515400   1.008000   ; qtot 53.492578
 1605         hc     54    bbb    H10   1605 0.09515400   1.008000   ; qtot 53.587732
 1606         c3     54    bbb     C6   1606 -0.11337700  12.010000   ; qtot 53.474355
 1607         hc     54    bbb    H11   1607 0.09515400   1.008000   ; qtot 53.569509
 1608         hc     54    bbb    H12   1608 0.09515400   1.008000   ; qtot 53.664663
 1609         c3     54    bbb     C7   1609 0.21842400  12.010000   ; qtot 53.883087
 1610         h1     54    bbb    H13   1610 0.04500300   1.008000   ; qtot 53.928090
 1611         h1     54    bbb    H14   1611 0.04500300   1.008000   ; qtot 53.973093
 1612         c3     54    bbb     C8   1612 -0.06455200  12.010000   ; qtot 53.908541
 1613         h1     54    bbb    H15   1613 0.13554100   1.008000   ; qtot 54.044082
 1614         h1     54    bbb    H16   1614 0.13554100   1.008000   ; qtot 54.179623
 1615         c3     54    bbb     C9   1615 -0.06455200  12.010000   ; qtot 54.115071
 1616         h1     54    bbb    H17   1616 0.13554100   1.008000   ; qtot 54.250612
 1617         h1     54    bbb    H18   1617 0.13554100   1.008000   ; qtot 54.386153
 1618         os     54    bbb     O1   1618 -0.62587700  16.000000   ; qtot 53.760276
 1619         hn     54    bbb    H19   1619 0.23982500   1.008000   ; qtot 54.000101
; residue   55 bbb rtp bbb q 1.0
 1620         n4     55    bbb     N1   1620 0.03726400  14.010000   ; qtot 54.037365
 1621         c3     55    bbb     C1   1621 -0.07020100  12.010000   ; qtot 53.967164
 1622         hx     55    bbb     H1   1622 0.12219000   1.008000   ; qtot 54.089354
 1623         hx     55    bbb     H2   1623 0.12219000   1.008000   ; qtot 54.211544
 1624         c3     55    bbb     C2   1624 -0.07020100  12.010000   ; qtot 54.141343
 1625         hx     55    bbb     H3   1625 0.12219000   1.008000   ; qtot 54.263533
 1626         hx     55    bbb     H4   1626 0.12219000   1.008000   ; qtot 54.385723
 1627         c3     55    bbb     C3   1627 -0.39007700  12.010000   ; qtot 53.995646
 1628         hx     55    bbb     H5   1628 0.14940300   1.008000   ; qtot 54.145049
 1629         hx     55    bbb     H6   1629 0.14940300   1.008000   ; qtot 54.294452
 1630         c3     55    bbb     C4   1630 0.18057300  12.010000   ; qtot 54.475025
 1631         hc     55    bbb     H7   1631 0.01788900   1.008000   ; qtot 54.492914
 1632         hc     55    bbb     H8   1632 0.01788900   1.008000   ; qtot 54.510803
 1633         c3     55    bbb     C5   1633 -0.11337700  12.010000   ; qtot 54.397426
 1634         hc     55    bbb     H9   1634 0.09515400   1.008000   ; qtot 54.492580
 1635         hc     55    bbb    H10   1635 0.09515400   1.008000   ; qtot 54.587734
 1636         c3     55    bbb     C6   1636 -0.11337700  12.010000   ; qtot 54.474357
 1637         hc     55    bbb    H11   1637 0.09515400   1.008000   ; qtot 54.569511
 1638         hc     55    bbb    H12   1638 0.09515400   1.008000   ; qtot 54.664665
 1639         c3     55    bbb     C7   1639 0.21842400  12.010000   ; qtot 54.883089
 1640         h1     55    bbb    H13   1640 0.04500300   1.008000   ; qtot 54.928092
 1641         h1     55    bbb    H14   1641 0.04500300   1.008000   ; qtot 54.973095
 1642         c3     55    bbb     C8   1642 -0.06455200  12.010000   ; qtot 54.908543
 1643         h1     55    bbb    H15   1643 0.13554100   1.008000   ; qtot 55.044084
 1644         h1     55    bbb    H16   1644 0.13554100   1.008000   ; qtot 55.179625
 1645         c3     55    bbb     C9   1645 -0.06455200  12.010000   ; qtot 55.115073
 1646         h1     55    bbb    H17   1646 0.13554100   1.008000   ; qtot 55.250614
 1647         h1     55    bbb    H18   1647 0.13554100   1.008000   ; qtot 55.386155
 1648         os     55    bbb     O1   1648 -0.62587700  16.000000   ; qtot 54.760278
 1649         hn     55    bbb    H19   1649 0.23982500   1.008000   ; qtot 55.000103
; residue   56 bbb rtp bbb q 1.0
 1650         n4     56    bbb     N1   1650 0.03726400  14.010000   ; qtot 55.037367
 1651         c3     56    bbb     C1   1651 -0.07020100  12.010000   ; qtot 54.967166
 1652         hx     56    bbb     H1   1652 0.12219000   1.008000   ; qtot 55.089356
 1653         hx     56    bbb     H2   1653 0.12219000   1.008000   ; qtot 55.211546
 1654         c3     56    bbb     C2   1654 -0.07020100  12.010000   ; qtot 55.141345
 1655         hx     56    bbb     H3   1655 0.12219000   1.008000   ; qtot 55.263535
 1656         hx     56    bbb     H4   1656 0.12219000   1.008000   ; qtot 55.385725
 1657         c3     56    bbb     C3   1657 -0.39007700  12.010000   ; qtot 54.995648
 1658         hx     56    bbb     H5   1658 0.14940300   1.008000   ; qtot 55.145051
 1659         hx     56    bbb     H6   1659 0.14940300   1.008000   ; qtot 55.294454
 1660         c3     56    bbb     C4   1660 0.18057300  12.010000   ; qtot 55.475027
 1661         hc     56    bbb     H7   1661 0.01788900   1.008000   ; qtot 55.492916
 1662         hc     56    bbb     H8   1662 0.01788900   1.008000   ; qtot 55.510805
 1663         c3     56    bbb     C5   1663 -0.11337700  12.010000   ; qtot 55.397428
 1664         hc     56    bbb     H9   1664 0.09515400   1.008000   ; qtot 55.492582
 1665         hc     56    bbb    H10   1665 0.09515400   1.008000   ; qtot 55.587736
 1666         c3     56    bbb     C6   1666 -0.11337700  12.010000   ; qtot 55.474359
 1667         hc     56    bbb    H11   1667 0.09515400   1.008000   ; qtot 55.569513
 1668         hc     56    bbb    H12   1668 0.09515400   1.008000   ; qtot 55.664667
 1669         c3     56    bbb     C7   1669 0.21842400  12.010000   ; qtot 55.883091
 1670         h1     56    bbb    H13   1670 0.04500300   1.008000   ; qtot 55.928094
 1671         h1     56    bbb    H14   1671 0.04500300   1.008000   ; qtot 55.973097
 1672         c3     56    bbb     C8   1672 -0.06455200  12.010000   ; qtot 55.908545
 1673         h1     56    bbb    H15   1673 0.13554100   1.008000   ; qtot 56.044086
 1674         h1     56    bbb    H16   1674 0.13554100   1.008000   ; qtot 56.179627
 1675         c3     56    bbb     C9   1675 -0.06455200  12.010000   ; qtot 56.115075
 1676         h1     56    bbb    H17   1676 0.13554100   1.008000   ; qtot 56.250616
 1677         h1     56    bbb    H18   1677 0.13554100   1.008000   ; qtot 56.386157
 1678         os     56    bbb     O1   1678 -0.62587700  16.000000   ; qtot 55.760280
 1679         hn     56    bbb    H19   1679 0.23982500   1.008000   ; qtot 56.000105
; residue   57 bbb rtp bbb q 1.0
 1680         n4     57    bbb     N1   1680 0.03726400  14.010000   ; qtot 56.037369
 1681         c3     57    bbb     C1   1681 -0.07020100  12.010000   ; qtot 55.967168
 1682         hx     57    bbb     H1   1682 0.12219000   1.008000   ; qtot 56.089358
 1683         hx     57    bbb     H2   1683 0.12219000   1.008000   ; qtot 56.211548
 1684         c3     57    bbb     C2   1684 -0.07020100  12.010000   ; qtot 56.141347
 1685         hx     57    bbb     H3   1685 0.12219000   1.008000   ; qtot 56.263537
 1686         hx     57    bbb     H4   1686 0.12219000   1.008000   ; qtot 56.385727
 1687         c3     57    bbb     C3   1687 -0.39007700  12.010000   ; qtot 55.995650
 1688         hx     57    bbb     H5   1688 0.14940300   1.008000   ; qtot 56.145053
 1689         hx     57    bbb     H6   1689 0.14940300   1.008000   ; qtot 56.294456
 1690         c3     57    bbb     C4   1690 0.18057300  12.010000   ; qtot 56.475029
 1691         hc     57    bbb     H7   1691 0.01788900   1.008000   ; qtot 56.492918
 1692         hc     57    bbb     H8   1692 0.01788900   1.008000   ; qtot 56.510807
 1693         c3     57    bbb     C5   1693 -0.11337700  12.010000   ; qtot 56.397430
 1694         hc     57    bbb     H9   1694 0.09515400   1.008000   ; qtot 56.492584
 1695         hc     57    bbb    H10   1695 0.09515400   1.008000   ; qtot 56.587738
 1696         c3     57    bbb     C6   1696 -0.11337700  12.010000   ; qtot 56.474361
 1697         hc     57    bbb    H11   1697 0.09515400   1.008000   ; qtot 56.569515
 1698         hc     57    bbb    H12   1698 0.09515400   1.008000   ; qtot 56.664669
 1699         c3     57    bbb     C7   1699 0.21842400  12.010000   ; qtot 56.883093
 1700         h1     57    bbb    H13   1700 0.04500300   1.008000   ; qtot 56.928096
 1701         h1     57    bbb    H14   1701 0.04500300   1.008000   ; qtot 56.973099
 1702         c3     57    bbb     C8   1702 -0.06455200  12.010000   ; qtot 56.908547
 1703         h1     57    bbb    H15   1703 0.13554100   1.008000   ; qtot 57.044088
 1704         h1     57    bbb    H16   1704 0.13554100   1.008000   ; qtot 57.179629
 1705         c3     57    bbb     C9   1705 -0.06455200  12.010000   ; qtot 57.115077
 1706         h1     57    bbb    H17   1706 0.13554100   1.008000   ; qtot 57.250618
 1707         h1     57    bbb    H18   1707 0.13554100   1.008000   ; qtot 57.386159
 1708         os     57    bbb     O1   1708 -0.62587700  16.000000   ; qtot 56.760282
 1709         hn     57    bbb    H19   1709 0.23982500   1.008000   ; qtot 57.000107
; residue   58 bbb rtp bbb q 1.0
 1710         n4     58    bbb     N1   1710 0.03726400  14.010000   ; qtot 57.037371
 1711         c3     58    bbb     C1   1711 -0.07020100  12.010000   ; qtot 56.967170
 1712         hx     58    bbb     H1   1712 0.12219000   1.008000   ; qtot 57.089360
 1713         hx     58    bbb     H2   1713 0.12219000   1.008000   ; qtot 57.211550
 1714         c3     58    bbb     C2   1714 -0.07020100  12.010000   ; qtot 57.141349
 1715         hx     58    bbb     H3   1715 0.12219000   1.008000   ; qtot 57.263539
 1716         hx     58    bbb     H4   1716 0.12219000   1.008000   ; qtot 57.385729
 1717         c3     58    bbb     C3   1717 -0.39007700  12.010000   ; qtot 56.995652
 1718         hx     58    bbb     H5   1718 0.14940300   1.008000   ; qtot 57.145055
 1719         hx     58    bbb     H6   1719 0.14940300   1.008000   ; qtot 57.294458
 1720         c3     58    bbb     C4   1720 0.18057300  12.010000   ; qtot 57.475031
 1721         hc     58    bbb     H7   1721 0.01788900   1.008000   ; qtot 57.492920
 1722         hc     58    bbb     H8   1722 0.01788900   1.008000   ; qtot 57.510809
 1723         c3     58    bbb     C5   1723 -0.11337700  12.010000   ; qtot 57.397432
 1724         hc     58    bbb     H9   1724 0.09515400   1.008000   ; qtot 57.492586
 1725         hc     58    bbb    H10   1725 0.09515400   1.008000   ; qtot 57.587740
 1726         c3     58    bbb     C6   1726 -0.11337700  12.010000   ; qtot 57.474363
 1727         hc     58    bbb    H11   1727 0.09515400   1.008000   ; qtot 57.569517
 1728         hc     58    bbb    H12   1728 0.09515400   1.008000   ; qtot 57.664671
 1729         c3     58    bbb     C7   1729 0.21842400  12.010000   ; qtot 57.883095
 1730         h1     58    bbb    H13   1730 0.04500300   1.008000   ; qtot 57.928098
 1731         h1     58    bbb    H14   1731 0.04500300   1.008000   ; qtot 57.973101
 1732         c3     58    bbb     C8   1732 -0.06455200  12.010000   ; qtot 57.908549
 1733         h1     58    bbb    H15   1733 0.13554100   1.008000   ; qtot 58.044090
 1734         h1     58    bbb    H16   1734 0.13554100   1.008000   ; qtot 58.179631
 1735         c3     58    bbb     C9   1735 -0.06455200  12.010000   ; qtot 58.115079
 1736         h1     58    bbb    H17   1736 0.13554100   1.008000   ; qtot 58.250620
 1737         h1     58    bbb    H18   1737 0.13554100   1.008000   ; qtot 58.386161
 1738         os     58    bbb     O1   1738 -0.62587700  16.000000   ; qtot 57.760284
 1739         hn     58    bbb    H19   1739 0.23982500   1.008000   ; qtot 58.000109
; residue   59 bbb rtp bbb q 1.0
 1740         n4     59    bbb     N1   1740 0.03726400  14.010000   ; qtot 58.037373
 1741         c3     59    bbb     C1   1741 -0.07020100  12.010000   ; qtot 57.967172
 1742         hx     59    bbb     H1   1742 0.12219000   1.008000   ; qtot 58.089362
 1743         hx     59    bbb     H2   1743 0.12219000   1.008000   ; qtot 58.211552
 1744         c3     59    bbb     C2   1744 -0.07020100  12.010000   ; qtot 58.141351
 1745         hx     59    bbb     H3   1745 0.12219000   1.008000   ; qtot 58.263541
 1746         hx     59    bbb     H4   1746 0.12219000   1.008000   ; qtot 58.385731
 1747         c3     59    bbb     C3   1747 -0.39007700  12.010000   ; qtot 57.995654
 1748         hx     59    bbb     H5   1748 0.14940300   1.008000   ; qtot 58.145057
 1749         hx     59    bbb     H6   1749 0.14940300   1.008000   ; qtot 58.294460
 1750         c3     59    bbb     C4   1750 0.18057300  12.010000   ; qtot 58.475033
 1751         hc     59    bbb     H7   1751 0.01788900   1.008000   ; qtot 58.492922
 1752         hc     59    bbb     H8   1752 0.01788900   1.008000   ; qtot 58.510811
 1753         c3     59    bbb     C5   1753 -0.11337700  12.010000   ; qtot 58.397434
 1754         hc     59    bbb     H9   1754 0.09515400   1.008000   ; qtot 58.492588
 1755         hc     59    bbb    H10   1755 0.09515400   1.008000   ; qtot 58.587742
 1756         c3     59    bbb     C6   1756 -0.11337700  12.010000   ; qtot 58.474365
 1757         hc     59    bbb    H11   1757 0.09515400   1.008000   ; qtot 58.569519
 1758         hc     59    bbb    H12   1758 0.09515400   1.008000   ; qtot 58.664673
 1759         c3     59    bbb     C7   1759 0.21842400  12.010000   ; qtot 58.883097
 1760         h1     59    bbb    H13   1760 0.04500300   1.008000   ; qtot 58.928100
 1761         h1     59    bbb    H14   1761 0.04500300   1.008000   ; qtot 58.973103
 1762         c3     59    bbb     C8   1762 -0.06455200  12.010000   ; qtot 58.908551
 1763         h1     59    bbb    H15   1763 0.13554100   1.008000   ; qtot 59.044092
 1764         h1     59    bbb    H16   1764 0.13554100   1.008000   ; qtot 59.179633
 1765         c3     59    bbb     C9   1765 -0.06455200  12.010000   ; qtot 59.115081
 1766         h1     59    bbb    H17   1766 0.13554100   1.008000   ; qtot 59.250622
 1767         h1     59    bbb    H18   1767 0.13554100   1.008000   ; qtot 59.386163
 1768         os     59    bbb     O1   1768 -0.62587700  16.000000   ; qtot 58.760286
 1769         hn     59    bbb    H19   1769 0.23982500   1.008000   ; qtot 59.000111
; residue   60 bbb rtp bbb q 1.0
 1770         n4     60    bbb     N1   1770 0.03726400  14.010000   ; qtot 59.037375
 1771         c3     60    bbb     C1   1771 -0.07020100  12.010000   ; qtot 58.967174
 1772         hx     60    bbb     H1   1772 0.12219000   1.008000   ; qtot 59.089364
 1773         hx     60    bbb     H2   1773 0.12219000   1.008000   ; qtot 59.211554
 1774         c3     60    bbb     C2   1774 -0.07020100  12.010000   ; qtot 59.141353
 1775         hx     60    bbb     H3   1775 0.12219000   1.008000   ; qtot 59.263543
 1776         hx     60    bbb     H4   1776 0.12219000   1.008000   ; qtot 59.385733
 1777         c3     60    bbb     C3   1777 -0.39007700  12.010000   ; qtot 58.995656
 1778         hx     60    bbb     H5   1778 0.14940300   1.008000   ; qtot 59.145059
 1779         hx     60    bbb     H6   1779 0.14940300   1.008000   ; qtot 59.294462
 1780         c3     60    bbb     C4   1780 0.18057300  12.010000   ; qtot 59.475035
 1781         hc     60    bbb     H7   1781 0.01788900   1.008000   ; qtot 59.492924
 1782         hc     60    bbb     H8   1782 0.01788900   1.008000   ; qtot 59.510813
 1783         c3     60    bbb     C5   1783 -0.11337700  12.010000   ; qtot 59.397436
 1784         hc     60    bbb     H9   1784 0.09515400   1.008000   ; qtot 59.492590
 1785         hc     60    bbb    H10   1785 0.09515400   1.008000   ; qtot 59.587744
 1786         c3     60    bbb     C6   1786 -0.11337700  12.010000   ; qtot 59.474367
 1787         hc     60    bbb    H11   1787 0.09515400   1.008000   ; qtot 59.569521
 1788         hc     60    bbb    H12   1788 0.09515400   1.008000   ; qtot 59.664675
 1789         c3     60    bbb     C7   1789 0.21842400  12.010000   ; qtot 59.883099
 1790         h1     60    bbb    H13   1790 0.04500300   1.008000   ; qtot 59.928102
 1791         h1     60    bbb    H14   1791 0.04500300   1.008000   ; qtot 59.973105
 1792         c3     60    bbb     C8   1792 -0.06455200  12.010000   ; qtot 59.908553
 1793         h1     60    bbb    H15   1793 0.13554100   1.008000   ; qtot 60.044094
 1794         h1     60    bbb    H16   1794 0.13554100   1.008000   ; qtot 60.179635
 1795         c3     60    bbb     C9   1795 -0.06455200  12.010000   ; qtot 60.115083
 1796         h1     60    bbb    H17   1796 0.13554100   1.008000   ; qtot 60.250624
 1797         h1     60    bbb    H18   1797 0.13554100   1.008000   ; qtot 60.386165
 1798         os     60    bbb     O1   1798 -0.62587700  16.000000   ; qtot 59.760288
 1799         hn     60    bbb    H19   1799 0.23982500   1.008000   ; qtot 60.000113
; residue   61 bbb rtp bbb q 1.0
 1800         n4     61    bbb     N1   1800 0.03726400  14.010000   ; qtot 60.037377
 1801         c3     61    bbb     C1   1801 -0.07020100  12.010000   ; qtot 59.967176
 1802         hx     61    bbb     H1   1802 0.12219000   1.008000   ; qtot 60.089366
 1803         hx     61    bbb     H2   1803 0.12219000   1.008000   ; qtot 60.211556
 1804         c3     61    bbb     C2   1804 -0.07020100  12.010000   ; qtot 60.141355
 1805         hx     61    bbb     H3   1805 0.12219000   1.008000   ; qtot 60.263545
 1806         hx     61    bbb     H4   1806 0.12219000   1.008000   ; qtot 60.385735
 1807         c3     61    bbb     C3   1807 -0.39007700  12.010000   ; qtot 59.995658
 1808         hx     61    bbb     H5   1808 0.14940300   1.008000   ; qtot 60.145061
 1809         hx     61    bbb     H6   1809 0.14940300   1.008000   ; qtot 60.294464
 1810         c3     61    bbb     C4   1810 0.18057300  12.010000   ; qtot 60.475037
 1811         hc     61    bbb     H7   1811 0.01788900   1.008000   ; qtot 60.492926
 1812         hc     61    bbb     H8   1812 0.01788900   1.008000   ; qtot 60.510815
 1813         c3     61    bbb     C5   1813 -0.11337700  12.010000   ; qtot 60.397438
 1814         hc     61    bbb     H9   1814 0.09515400   1.008000   ; qtot 60.492592
 1815         hc     61    bbb    H10   1815 0.09515400   1.008000   ; qtot 60.587746
 1816         c3     61    bbb     C6   1816 -0.11337700  12.010000   ; qtot 60.474369
 1817         hc     61    bbb    H11   1817 0.09515400   1.008000   ; qtot 60.569523
 1818         hc     61    bbb    H12   1818 0.09515400   1.008000   ; qtot 60.664677
 1819         c3     61    bbb     C7   1819 0.21842400  12.010000   ; qtot 60.883101
 1820         h1     61    bbb    H13   1820 0.04500300   1.008000   ; qtot 60.928104
 1821         h1     61    bbb    H14   1821 0.04500300   1.008000   ; qtot 60.973107
 1822         c3     61    bbb     C8   1822 -0.06455200  12.010000   ; qtot 60.908555
 1823         h1     61    bbb    H15   1823 0.13554100   1.008000   ; qtot 61.044096
 1824         h1     61    bbb    H16   1824 0.13554100   1.008000   ; qtot 61.179637
 1825         c3     61    bbb     C9   1825 -0.06455200  12.010000   ; qtot 61.115085
 1826         h1     61    bbb    H17   1826 0.13554100   1.008000   ; qtot 61.250626
 1827         h1     61    bbb    H18   1827 0.13554100   1.008000   ; qtot 61.386167
 1828         os     61    bbb     O1   1828 -0.62587700  16.000000   ; qtot 60.760290
 1829         hn     61    bbb    H19   1829 0.23982500   1.008000   ; qtot 61.000115
; residue   62 bbb rtp bbb q 1.0
 1830         n4     62    bbb     N1   1830 0.03726400  14.010000   ; qtot 61.037379
 1831         c3     62    bbb     C1   1831 -0.07020100  12.010000   ; qtot 60.967178
 1832         hx     62    bbb     H1   1832 0.12219000   1.008000   ; qtot 61.089368
 1833         hx     62    bbb     H2   1833 0.12219000   1.008000   ; qtot 61.211558
 1834         c3     62    bbb     C2   1834 -0.07020100  12.010000   ; qtot 61.141357
 1835         hx     62    bbb     H3   1835 0.12219000   1.008000   ; qtot 61.263547
 1836         hx     62    bbb     H4   1836 0.12219000   1.008000   ; qtot 61.385737
 1837         c3     62    bbb     C3   1837 -0.39007700  12.010000   ; qtot 60.995660
 1838         hx     62    bbb     H5   1838 0.14940300   1.008000   ; qtot 61.145063
 1839         hx     62    bbb     H6   1839 0.14940300   1.008000   ; qtot 61.294466
 1840         c3     62    bbb     C4   1840 0.18057300  12.010000   ; qtot 61.475039
 1841         hc     62    bbb     H7   1841 0.01788900   1.008000   ; qtot 61.492928
 1842         hc     62    bbb     H8   1842 0.01788900   1.008000   ; qtot 61.510817
 1843         c3     62    bbb     C5   1843 -0.11337700  12.010000   ; qtot 61.397440
 1844         hc     62    bbb     H9   1844 0.09515400   1.008000   ; qtot 61.492594
 1845         hc     62    bbb    H10   1845 0.09515400   1.008000   ; qtot 61.587748
 1846         c3     62    bbb     C6   1846 -0.11337700  12.010000   ; qtot 61.474371
 1847         hc     62    bbb    H11   1847 0.09515400   1.008000   ; qtot 61.569525
 1848         hc     62    bbb    H12   1848 0.09515400   1.008000   ; qtot 61.664679
 1849         c3     62    bbb     C7   1849 0.21842400  12.010000   ; qtot 61.883103
 1850         h1     62    bbb    H13   1850 0.04500300   1.008000   ; qtot 61.928106
 1851         h1     62    bbb    H14   1851 0.04500300   1.008000   ; qtot 61.973109
 1852         c3     62    bbb     C8   1852 -0.06455200  12.010000   ; qtot 61.908557
 1853         h1     62    bbb    H15   1853 0.13554100   1.008000   ; qtot 62.044098
 1854         h1     62    bbb    H16   1854 0.13554100   1.008000   ; qtot 62.179639
 1855         c3     62    bbb     C9   1855 -0.06455200  12.010000   ; qtot 62.115087
 1856         h1     62    bbb    H17   1856 0.13554100   1.008000   ; qtot 62.250628
 1857         h1     62    bbb    H18   1857 0.13554100   1.008000   ; qtot 62.386169
 1858         os     62    bbb     O1   1858 -0.62587700  16.000000   ; qtot 61.760292
 1859         hn     62    bbb    H19   1859 0.23982500   1.008000   ; qtot 62.000117
; residue   63 bbb rtp bbb q 1.0
 1860         n4     63    bbb     N1   1860 0.03726400  14.010000   ; qtot 62.037381
 1861         c3     63    bbb     C1   1861 -0.07020100  12.010000   ; qtot 61.967180
 1862         hx     63    bbb     H1   1862 0.12219000   1.008000   ; qtot 62.089370
 1863         hx     63    bbb     H2   1863 0.12219000   1.008000   ; qtot 62.211560
 1864         c3     63    bbb     C2   1864 -0.07020100  12.010000   ; qtot 62.141359
 1865         hx     63    bbb     H3   1865 0.12219000   1.008000   ; qtot 62.263549
 1866         hx     63    bbb     H4   1866 0.12219000   1.008000   ; qtot 62.385739
 1867         c3     63    bbb     C3   1867 -0.39007700  12.010000   ; qtot 61.995662
 1868         hx     63    bbb     H5   1868 0.14940300   1.008000   ; qtot 62.145065
 1869         hx     63    bbb     H6   1869 0.14940300   1.008000   ; qtot 62.294468
 1870         c3     63    bbb     C4   1870 0.18057300  12.010000   ; qtot 62.475041
 1871         hc     63    bbb     H7   1871 0.01788900   1.008000   ; qtot 62.492930
 1872         hc     63    bbb     H8   1872 0.01788900   1.008000   ; qtot 62.510819
 1873         c3     63    bbb     C5   1873 -0.11337700  12.010000   ; qtot 62.397442
 1874         hc     63    bbb     H9   1874 0.09515400   1.008000   ; qtot 62.492596
 1875         hc     63    bbb    H10   1875 0.09515400   1.008000   ; qtot 62.587750
 1876         c3     63    bbb     C6   1876 -0.11337700  12.010000   ; qtot 62.474373
 1877         hc     63    bbb    H11   1877 0.09515400   1.008000   ; qtot 62.569527
 1878         hc     63    bbb    H12   1878 0.09515400   1.008000   ; qtot 62.664681
 1879         c3     63    bbb     C7   1879 0.21842400  12.010000   ; qtot 62.883105
 1880         h1     63    bbb    H13   1880 0.04500300   1.008000   ; qtot 62.928108
 1881         h1     63    bbb    H14   1881 0.04500300   1.008000   ; qtot 62.973111
 1882         c3     63    bbb     C8   1882 -0.06455200  12.010000   ; qtot 62.908559
 1883         h1     63    bbb    H15   1883 0.13554100   1.008000   ; qtot 63.044100
 1884         h1     63    bbb    H16   1884 0.13554100   1.008000   ; qtot 63.179641
 1885         c3     63    bbb     C9   1885 -0.06455200  12.010000   ; qtot 63.115089
 1886         h1     63    bbb    H17   1886 0.13554100   1.008000   ; qtot 63.250630
 1887         h1     63    bbb    H18   1887 0.13554100   1.008000   ; qtot 63.386171
 1888         os     63    bbb     O1   1888 -0.62587700  16.000000   ; qtot 62.760294
 1889         hn     63    bbb    H19   1889 0.23982500   1.008000   ; qtot 63.000119
; residue   64 bbb rtp bbb q 1.0
 1890         n4     64    bbb     N1   1890 0.03726400  14.010000   ; qtot 63.037383
 1891         c3     64    bbb     C1   1891 -0.07020100  12.010000   ; qtot 62.967182
 1892         hx     64    bbb     H1   1892 0.12219000   1.008000   ; qtot 63.089372
 1893         hx     64    bbb     H2   1893 0.12219000   1.008000   ; qtot 63.211562
 1894         c3     64    bbb     C2   1894 -0.07020100  12.010000   ; qtot 63.141361
 1895         hx     64    bbb     H3   1895 0.12219000   1.008000   ; qtot 63.263551
 1896         hx     64    bbb     H4   1896 0.12219000   1.008000   ; qtot 63.385741
 1897         c3     64    bbb     C3   1897 -0.39007700  12.010000   ; qtot 62.995664
 1898         hx     64    bbb     H5   1898 0.14940300   1.008000   ; qtot 63.145067
 1899         hx     64    bbb     H6   1899 0.14940300   1.008000   ; qtot 63.294470
 1900         c3     64    bbb     C4   1900 0.18057300  12.010000   ; qtot 63.475043
 1901         hc     64    bbb     H7   1901 0.01788900   1.008000   ; qtot 63.492932
 1902         hc     64    bbb     H8   1902 0.01788900   1.008000   ; qtot 63.510821
 1903         c3     64    bbb     C5   1903 -0.11337700  12.010000   ; qtot 63.397444
 1904         hc     64    bbb     H9   1904 0.09515400   1.008000   ; qtot 63.492598
 1905         hc     64    bbb    H10   1905 0.09515400   1.008000   ; qtot 63.587752
 1906         c3     64    bbb     C6   1906 -0.11337700  12.010000   ; qtot 63.474375
 1907         hc     64    bbb    H11   1907 0.09515400   1.008000   ; qtot 63.569529
 1908         hc     64    bbb    H12   1908 0.09515400   1.008000   ; qtot 63.664683
 1909         c3     64    bbb     C7   1909 0.21842400  12.010000   ; qtot 63.883107
 1910         h1     64    bbb    H13   1910 0.04500300   1.008000   ; qtot 63.928110
 1911         h1     64    bbb    H14   1911 0.04500300   1.008000   ; qtot 63.973113
 1912         c3     64    bbb     C8   1912 -0.06455200  12.010000   ; qtot 63.908561
 1913         h1     64    bbb    H15   1913 0.13554100   1.008000   ; qtot 64.044102
 1914         h1     64    bbb    H16   1914 0.13554100   1.008000   ; qtot 64.179643
 1915         c3     64    bbb     C9   1915 -0.06455200  12.010000   ; qtot 64.115091
 1916         h1     64    bbb    H17   1916 0.13554100   1.008000   ; qtot 64.250632
 1917         h1     64    bbb    H18   1917 0.13554100   1.008000   ; qtot 64.386173
 1918         os     64    bbb     O1   1918 -0.62587700  16.000000   ; qtot 63.760296
 1919         hn     64    bbb    H19   1919 0.23982500   1.008000   ; qtot 64.000121
; residue   65 bbb rtp bbb q 1.0
 1920         n4     65    bbb     N1   1920 0.03726400  14.010000   ; qtot 64.037385
 1921         c3     65    bbb     C1   1921 -0.07020100  12.010000   ; qtot 63.967184
 1922         hx     65    bbb     H1   1922 0.12219000   1.008000   ; qtot 64.089374
 1923         hx     65    bbb     H2   1923 0.12219000   1.008000   ; qtot 64.211564
 1924         c3     65    bbb     C2   1924 -0.07020100  12.010000   ; qtot 64.141363
 1925         hx     65    bbb     H3   1925 0.12219000   1.008000   ; qtot 64.263553
 1926         hx     65    bbb     H4   1926 0.12219000   1.008000   ; qtot 64.385743
 1927         c3     65    bbb     C3   1927 -0.39007700  12.010000   ; qtot 63.995666
 1928         hx     65    bbb     H5   1928 0.14940300   1.008000   ; qtot 64.145069
 1929         hx     65    bbb     H6   1929 0.14940300   1.008000   ; qtot 64.294472
 1930         c3     65    bbb     C4   1930 0.18057300  12.010000   ; qtot 64.475045
 1931         hc     65    bbb     H7   1931 0.01788900   1.008000   ; qtot 64.492934
 1932         hc     65    bbb     H8   1932 0.01788900   1.008000   ; qtot 64.510823
 1933         c3     65    bbb     C5   1933 -0.11337700  12.010000   ; qtot 64.397446
 1934         hc     65    bbb     H9   1934 0.09515400   1.008000   ; qtot 64.492600
 1935         hc     65    bbb    H10   1935 0.09515400   1.008000   ; qtot 64.587754
 1936         c3     65    bbb     C6   1936 -0.11337700  12.010000   ; qtot 64.474377
 1937         hc     65    bbb    H11   1937 0.09515400   1.008000   ; qtot 64.569531
 1938         hc     65    bbb    H12   1938 0.09515400   1.008000   ; qtot 64.664685
 1939         c3     65    bbb     C7   1939 0.21842400  12.010000   ; qtot 64.883109
 1940         h1     65    bbb    H13   1940 0.04500300   1.008000   ; qtot 64.928112
 1941         h1     65    bbb    H14   1941 0.04500300   1.008000   ; qtot 64.973115
 1942         c3     65    bbb     C8   1942 -0.06455200  12.010000   ; qtot 64.908563
 1943         h1     65    bbb    H15   1943 0.13554100   1.008000   ; qtot 65.044104
 1944         h1     65    bbb    H16   1944 0.13554100   1.008000   ; qtot 65.179645
 1945         c3     65    bbb     C9   1945 -0.06455200  12.010000   ; qtot 65.115093
 1946         h1     65    bbb    H17   1946 0.13554100   1.008000   ; qtot 65.250634
 1947         h1     65    bbb    H18   1947 0.13554100   1.008000   ; qtot 65.386175
 1948         os     65    bbb     O1   1948 -0.62587700  16.000000   ; qtot 64.760298
 1949         hn     65    bbb    H19   1949 0.23982500   1.008000   ; qtot 65.000123
; residue   66 bbb rtp bbb q 1.0
 1950         n4     66    bbb     N1   1950 0.03726400  14.010000   ; qtot 65.037387
 1951         c3     66    bbb     C1   1951 -0.07020100  12.010000   ; qtot 64.967186
 1952         hx     66    bbb     H1   1952 0.12219000   1.008000   ; qtot 65.089376
 1953         hx     66    bbb     H2   1953 0.12219000   1.008000   ; qtot 65.211566
 1954         c3     66    bbb     C2   1954 -0.07020100  12.010000   ; qtot 65.141365
 1955         hx     66    bbb     H3   1955 0.12219000   1.008000   ; qtot 65.263555
 1956         hx     66    bbb     H4   1956 0.12219000   1.008000   ; qtot 65.385745
 1957         c3     66    bbb     C3   1957 -0.39007700  12.010000   ; qtot 64.995668
 1958         hx     66    bbb     H5   1958 0.14940300   1.008000   ; qtot 65.145071
 1959         hx     66    bbb     H6   1959 0.14940300   1.008000   ; qtot 65.294474
 1960         c3     66    bbb     C4   1960 0.18057300  12.010000   ; qtot 65.475047
 1961         hc     66    bbb     H7   1961 0.01788900   1.008000   ; qtot 65.492936
 1962         hc     66    bbb     H8   1962 0.01788900   1.008000   ; qtot 65.510825
 1963         c3     66    bbb     C5   1963 -0.11337700  12.010000   ; qtot 65.397448
 1964         hc     66    bbb     H9   1964 0.09515400   1.008000   ; qtot 65.492602
 1965         hc     66    bbb    H10   1965 0.09515400   1.008000   ; qtot 65.587756
 1966         c3     66    bbb     C6   1966 -0.11337700  12.010000   ; qtot 65.474379
 1967         hc     66    bbb    H11   1967 0.09515400   1.008000   ; qtot 65.569533
 1968         hc     66    bbb    H12   1968 0.09515400   1.008000   ; qtot 65.664687
 1969         c3     66    bbb     C7   1969 0.21842400  12.010000   ; qtot 65.883111
 1970         h1     66    bbb    H13   1970 0.04500300   1.008000   ; qtot 65.928114
 1971         h1     66    bbb    H14   1971 0.04500300   1.008000   ; qtot 65.973117
 1972         c3     66    bbb     C8   1972 -0.06455200  12.010000   ; qtot 65.908565
 1973         h1     66    bbb    H15   1973 0.13554100   1.008000   ; qtot 66.044106
 1974         h1     66    bbb    H16   1974 0.13554100   1.008000   ; qtot 66.179647
 1975         c3     66    bbb     C9   1975 -0.06455200  12.010000   ; qtot 66.115095
 1976         h1     66    bbb    H17   1976 0.13554100   1.008000   ; qtot 66.250636
 1977         h1     66    bbb    H18   1977 0.13554100   1.008000   ; qtot 66.386177
 1978         os     66    bbb     O1   1978 -0.62587700  16.000000   ; qtot 65.760300
 1979         hn     66    bbb    H19   1979 0.23982500   1.008000   ; qtot 66.000125
; residue   67 bbb rtp bbb q 1.0
 1980         n4     67    bbb     N1   1980 0.03726400  14.010000   ; qtot 66.037389
 1981         c3     67    bbb     C1   1981 -0.07020100  12.010000   ; qtot 65.967188
 1982         hx     67    bbb     H1   1982 0.12219000   1.008000   ; qtot 66.089378
 1983         hx     67    bbb     H2   1983 0.12219000   1.008000   ; qtot 66.211568
 1984         c3     67    bbb     C2   1984 -0.07020100  12.010000   ; qtot 66.141367
 1985         hx     67    bbb     H3   1985 0.12219000   1.008000   ; qtot 66.263557
 1986         hx     67    bbb     H4   1986 0.12219000   1.008000   ; qtot 66.385747
 1987         c3     67    bbb     C3   1987 -0.39007700  12.010000   ; qtot 65.995670
 1988         hx     67    bbb     H5   1988 0.14940300   1.008000   ; qtot 66.145073
 1989         hx     67    bbb     H6   1989 0.14940300   1.008000   ; qtot 66.294476
 1990         c3     67    bbb     C4   1990 0.18057300  12.010000   ; qtot 66.475049
 1991         hc     67    bbb     H7   1991 0.01788900   1.008000   ; qtot 66.492938
 1992         hc     67    bbb     H8   1992 0.01788900   1.008000   ; qtot 66.510827
 1993         c3     67    bbb     C5   1993 -0.11337700  12.010000   ; qtot 66.397450
 1994         hc     67    bbb     H9   1994 0.09515400   1.008000   ; qtot 66.492604
 1995         hc     67    bbb    H10   1995 0.09515400   1.008000   ; qtot 66.587758
 1996         c3     67    bbb     C6   1996 -0.11337700  12.010000   ; qtot 66.474381
 1997         hc     67    bbb    H11   1997 0.09515400   1.008000   ; qtot 66.569535
 1998         hc     67    bbb    H12   1998 0.09515400   1.008000   ; qtot 66.664689
 1999         c3     67    bbb     C7   1999 0.21842400  12.010000   ; qtot 66.883113
 2000         h1     67    bbb    H13   2000 0.04500300   1.008000   ; qtot 66.928116
 2001         h1     67    bbb    H14   2001 0.04500300   1.008000   ; qtot 66.973119
 2002         c3     67    bbb     C8   2002 -0.06455200  12.010000   ; qtot 66.908567
 2003         h1     67    bbb    H15   2003 0.13554100   1.008000   ; qtot 67.044108
 2004         h1     67    bbb    H16   2004 0.13554100   1.008000   ; qtot 67.179649
 2005         c3     67    bbb     C9   2005 -0.06455200  12.010000   ; qtot 67.115097
 2006         h1     67    bbb    H17   2006 0.13554100   1.008000   ; qtot 67.250638
 2007         h1     67    bbb    H18   2007 0.13554100   1.008000   ; qtot 67.386179
 2008         os     67    bbb     O1   2008 -0.62587700  16.000000   ; qtot 66.760302
 2009         hn     67    bbb    H19   2009 0.23982500   1.008000   ; qtot 67.000127
; residue   68 bbb rtp bbb q 1.0
 2010         n4     68    bbb     N1   2010 0.03726400  14.010000   ; qtot 67.037391
 2011         c3     68    bbb     C1   2011 -0.07020100  12.010000   ; qtot 66.967190
 2012         hx     68    bbb     H1   2012 0.12219000   1.008000   ; qtot 67.089380
 2013         hx     68    bbb     H2   2013 0.12219000   1.008000   ; qtot 67.211570
 2014         c3     68    bbb     C2   2014 -0.07020100  12.010000   ; qtot 67.141369
 2015         hx     68    bbb     H3   2015 0.12219000   1.008000   ; qtot 67.263559
 2016         hx     68    bbb     H4   2016 0.12219000   1.008000   ; qtot 67.385749
 2017         c3     68    bbb     C3   2017 -0.39007700  12.010000   ; qtot 66.995672
 2018         hx     68    bbb     H5   2018 0.14940300   1.008000   ; qtot 67.145075
 2019         hx     68    bbb     H6   2019 0.14940300   1.008000   ; qtot 67.294478
 2020         c3     68    bbb     C4   2020 0.18057300  12.010000   ; qtot 67.475051
 2021         hc     68    bbb     H7   2021 0.01788900   1.008000   ; qtot 67.492940
 2022         hc     68    bbb     H8   2022 0.01788900   1.008000   ; qtot 67.510829
 2023         c3     68    bbb     C5   2023 -0.11337700  12.010000   ; qtot 67.397452
 2024         hc     68    bbb     H9   2024 0.09515400   1.008000   ; qtot 67.492606
 2025         hc     68    bbb    H10   2025 0.09515400   1.008000   ; qtot 67.587760
 2026         c3     68    bbb     C6   2026 -0.11337700  12.010000   ; qtot 67.474383
 2027         hc     68    bbb    H11   2027 0.09515400   1.008000   ; qtot 67.569537
 2028         hc     68    bbb    H12   2028 0.09515400   1.008000   ; qtot 67.664691
 2029         c3     68    bbb     C7   2029 0.21842400  12.010000   ; qtot 67.883115
 2030         h1     68    bbb    H13   2030 0.04500300   1.008000   ; qtot 67.928118
 2031         h1     68    bbb    H14   2031 0.04500300   1.008000   ; qtot 67.973121
 2032         c3     68    bbb     C8   2032 -0.06455200  12.010000   ; qtot 67.908569
 2033         h1     68    bbb    H15   2033 0.13554100   1.008000   ; qtot 68.044110
 2034         h1     68    bbb    H16   2034 0.13554100   1.008000   ; qtot 68.179651
 2035         c3     68    bbb     C9   2035 -0.06455200  12.010000   ; qtot 68.115099
 2036         h1     68    bbb    H17   2036 0.13554100   1.008000   ; qtot 68.250640
 2037         h1     68    bbb    H18   2037 0.13554100   1.008000   ; qtot 68.386181
 2038         os     68    bbb     O1   2038 -0.62587700  16.000000   ; qtot 67.760304
 2039         hn     68    bbb    H19   2039 0.23982500   1.008000   ; qtot 68.000129
; residue   69 bbb rtp bbb q 1.0
 2040         n4     69    bbb     N1   2040 0.03726400  14.010000   ; qtot 68.037393
 2041         c3     69    bbb     C1   2041 -0.07020100  12.010000   ; qtot 67.967192
 2042         hx     69    bbb     H1   2042 0.12219000   1.008000   ; qtot 68.089382
 2043         hx     69    bbb     H2   2043 0.12219000   1.008000   ; qtot 68.211572
 2044         c3     69    bbb     C2   2044 -0.07020100  12.010000   ; qtot 68.141371
 2045         hx     69    bbb     H3   2045 0.12219000   1.008000   ; qtot 68.263561
 2046         hx     69    bbb     H4   2046 0.12219000   1.008000   ; qtot 68.385751
 2047         c3     69    bbb     C3   2047 -0.39007700  12.010000   ; qtot 67.995674
 2048         hx     69    bbb     H5   2048 0.14940300   1.008000   ; qtot 68.145077
 2049         hx     69    bbb     H6   2049 0.14940300   1.008000   ; qtot 68.294480
 2050         c3     69    bbb     C4   2050 0.18057300  12.010000   ; qtot 68.475053
 2051         hc     69    bbb     H7   2051 0.01788900   1.008000   ; qtot 68.492942
 2052         hc     69    bbb     H8   2052 0.01788900   1.008000   ; qtot 68.510831
 2053         c3     69    bbb     C5   2053 -0.11337700  12.010000   ; qtot 68.397454
 2054         hc     69    bbb     H9   2054 0.09515400   1.008000   ; qtot 68.492608
 2055         hc     69    bbb    H10   2055 0.09515400   1.008000   ; qtot 68.587762
 2056         c3     69    bbb     C6   2056 -0.11337700  12.010000   ; qtot 68.474385
 2057         hc     69    bbb    H11   2057 0.09515400   1.008000   ; qtot 68.569539
 2058         hc     69    bbb    H12   2058 0.09515400   1.008000   ; qtot 68.664693
 2059         c3     69    bbb     C7   2059 0.21842400  12.010000   ; qtot 68.883117
 2060         h1     69    bbb    H13   2060 0.04500300   1.008000   ; qtot 68.928120
 2061         h1     69    bbb    H14   2061 0.04500300   1.008000   ; qtot 68.973123
 2062         c3     69    bbb     C8   2062 -0.06455200  12.010000   ; qtot 68.908571
 2063         h1     69    bbb    H15   2063 0.13554100   1.008000   ; qtot 69.044112
 2064         h1     69    bbb    H16   2064 0.13554100   1.008000   ; qtot 69.179653
 2065         c3     69    bbb     C9   2065 -0.06455200  12.010000   ; qtot 69.115101
 2066         h1     69    bbb    H17   2066 0.13554100   1.008000   ; qtot 69.250642
 2067         h1     69    bbb    H18   2067 0.13554100   1.008000   ; qtot 69.386183
 2068         os     69    bbb     O1   2068 -0.62587700  16.000000   ; qtot 68.760306
 2069         hn     69    bbb    H19   2069 0.23982500   1.008000   ; qtot 69.000131
; residue   70 bbb rtp bbb q 1.0
 2070         n4     70    bbb     N1   2070 0.03726400  14.010000   ; qtot 69.037395
 2071         c3     70    bbb     C1   2071 -0.07020100  12.010000   ; qtot 68.967194
 2072         hx     70    bbb     H1   2072 0.12219000   1.008000   ; qtot 69.089384
 2073         hx     70    bbb     H2   2073 0.12219000   1.008000   ; qtot 69.211574
 2074         c3     70    bbb     C2   2074 -0.07020100  12.010000   ; qtot 69.141373
 2075         hx     70    bbb     H3   2075 0.12219000   1.008000   ; qtot 69.263563
 2076         hx     70    bbb     H4   2076 0.12219000   1.008000   ; qtot 69.385753
 2077         c3     70    bbb     C3   2077 -0.39007700  12.010000   ; qtot 68.995676
 2078         hx     70    bbb     H5   2078 0.14940300   1.008000   ; qtot 69.145079
 2079         hx     70    bbb     H6   2079 0.14940300   1.008000   ; qtot 69.294482
 2080         c3     70    bbb     C4   2080 0.18057300  12.010000   ; qtot 69.475055
 2081         hc     70    bbb     H7   2081 0.01788900   1.008000   ; qtot 69.492944
 2082         hc     70    bbb     H8   2082 0.01788900   1.008000   ; qtot 69.510833
 2083         c3     70    bbb     C5   2083 -0.11337700  12.010000   ; qtot 69.397456
 2084         hc     70    bbb     H9   2084 0.09515400   1.008000   ; qtot 69.492610
 2085         hc     70    bbb    H10   2085 0.09515400   1.008000   ; qtot 69.587764
 2086         c3     70    bbb     C6   2086 -0.11337700  12.010000   ; qtot 69.474387
 2087         hc     70    bbb    H11   2087 0.09515400   1.008000   ; qtot 69.569541
 2088         hc     70    bbb    H12   2088 0.09515400   1.008000   ; qtot 69.664695
 2089         c3     70    bbb     C7   2089 0.21842400  12.010000   ; qtot 69.883119
 2090         h1     70    bbb    H13   2090 0.04500300   1.008000   ; qtot 69.928122
 2091         h1     70    bbb    H14   2091 0.04500300   1.008000   ; qtot 69.973125
 2092         c3     70    bbb     C8   2092 -0.06455200  12.010000   ; qtot 69.908573
 2093         h1     70    bbb    H15   2093 0.13554100   1.008000   ; qtot 70.044114
 2094         h1     70    bbb    H16   2094 0.13554100   1.008000   ; qtot 70.179655
 2095         c3     70    bbb     C9   2095 -0.06455200  12.010000   ; qtot 70.115103
 2096         h1     70    bbb    H17   2096 0.13554100   1.008000   ; qtot 70.250644
 2097         h1     70    bbb    H18   2097 0.13554100   1.008000   ; qtot 70.386185
 2098         os     70    bbb     O1   2098 -0.62587700  16.000000   ; qtot 69.760308
 2099         hn     70    bbb    H19   2099 0.23982500   1.008000   ; qtot 70.000133
; residue   71 bbb rtp bbb q 1.0
 2100         n4     71    bbb     N1   2100 0.03726400  14.010000   ; qtot 70.037397
 2101         c3     71    bbb     C1   2101 -0.07020100  12.010000   ; qtot 69.967196
 2102         hx     71    bbb     H1   2102 0.12219000   1.008000   ; qtot 70.089386
 2103         hx     71    bbb     H2   2103 0.12219000   1.008000   ; qtot 70.211576
 2104         c3     71    bbb     C2   2104 -0.07020100  12.010000   ; qtot 70.141375
 2105         hx     71    bbb     H3   2105 0.12219000   1.008000   ; qtot 70.263565
 2106         hx     71    bbb     H4   2106 0.12219000   1.008000   ; qtot 70.385755
 2107         c3     71    bbb     C3   2107 -0.39007700  12.010000   ; qtot 69.995678
 2108         hx     71    bbb     H5   2108 0.14940300   1.008000   ; qtot 70.145081
 2109         hx     71    bbb     H6   2109 0.14940300   1.008000   ; qtot 70.294484
 2110         c3     71    bbb     C4   2110 0.18057300  12.010000   ; qtot 70.475057
 2111         hc     71    bbb     H7   2111 0.01788900   1.008000   ; qtot 70.492946
 2112         hc     71    bbb     H8   2112 0.01788900   1.008000   ; qtot 70.510835
 2113         c3     71    bbb     C5   2113 -0.11337700  12.010000   ; qtot 70.397458
 2114         hc     71    bbb     H9   2114 0.09515400   1.008000   ; qtot 70.492612
 2115         hc     71    bbb    H10   2115 0.09515400   1.008000   ; qtot 70.587766
 2116         c3     71    bbb     C6   2116 -0.11337700  12.010000   ; qtot 70.474389
 2117         hc     71    bbb    H11   2117 0.09515400   1.008000   ; qtot 70.569543
 2118         hc     71    bbb    H12   2118 0.09515400   1.008000   ; qtot 70.664697
 2119         c3     71    bbb     C7   2119 0.21842400  12.010000   ; qtot 70.883121
 2120         h1     71    bbb    H13   2120 0.04500300   1.008000   ; qtot 70.928124
 2121         h1     71    bbb    H14   2121 0.04500300   1.008000   ; qtot 70.973127
 2122         c3     71    bbb     C8   2122 -0.06455200  12.010000   ; qtot 70.908575
 2123         h1     71    bbb    H15   2123 0.13554100   1.008000   ; qtot 71.044116
 2124         h1     71    bbb    H16   2124 0.13554100   1.008000   ; qtot 71.179657
 2125         c3     71    bbb     C9   2125 -0.06455200  12.010000   ; qtot 71.115105
 2126         h1     71    bbb    H17   2126 0.13554100   1.008000   ; qtot 71.250646
 2127         h1     71    bbb    H18   2127 0.13554100   1.008000   ; qtot 71.386187
 2128         os     71    bbb     O1   2128 -0.62587700  16.000000   ; qtot 70.760310
 2129         hn     71    bbb    H19   2129 0.23982500   1.008000   ; qtot 71.000135
; residue   72 bbb rtp bbb q 1.0
 2130         n4     72    bbb     N1   2130 0.03726400  14.010000   ; qtot 71.037399
 2131         c3     72    bbb     C1   2131 -0.07020100  12.010000   ; qtot 70.967198
 2132         hx     72    bbb     H1   2132 0.12219000   1.008000   ; qtot 71.089388
 2133         hx     72    bbb     H2   2133 0.12219000   1.008000   ; qtot 71.211578
 2134         c3     72    bbb     C2   2134 -0.07020100  12.010000   ; qtot 71.141377
 2135         hx     72    bbb     H3   2135 0.12219000   1.008000   ; qtot 71.263567
 2136         hx     72    bbb     H4   2136 0.12219000   1.008000   ; qtot 71.385757
 2137         c3     72    bbb     C3   2137 -0.39007700  12.010000   ; qtot 70.995680
 2138         hx     72    bbb     H5   2138 0.14940300   1.008000   ; qtot 71.145083
 2139         hx     72    bbb     H6   2139 0.14940300   1.008000   ; qtot 71.294486
 2140         c3     72    bbb     C4   2140 0.18057300  12.010000   ; qtot 71.475059
 2141         hc     72    bbb     H7   2141 0.01788900   1.008000   ; qtot 71.492948
 2142         hc     72    bbb     H8   2142 0.01788900   1.008000   ; qtot 71.510837
 2143         c3     72    bbb     C5   2143 -0.11337700  12.010000   ; qtot 71.397460
 2144         hc     72    bbb     H9   2144 0.09515400   1.008000   ; qtot 71.492614
 2145         hc     72    bbb    H10   2145 0.09515400   1.008000   ; qtot 71.587768
 2146         c3     72    bbb     C6   2146 -0.11337700  12.010000   ; qtot 71.474391
 2147         hc     72    bbb    H11   2147 0.09515400   1.008000   ; qtot 71.569545
 2148         hc     72    bbb    H12   2148 0.09515400   1.008000   ; qtot 71.664699
 2149         c3     72    bbb     C7   2149 0.21842400  12.010000   ; qtot 71.883123
 2150         h1     72    bbb    H13   2150 0.04500300   1.008000   ; qtot 71.928126
 2151         h1     72    bbb    H14   2151 0.04500300   1.008000   ; qtot 71.973129
 2152         c3     72    bbb     C8   2152 -0.06455200  12.010000   ; qtot 71.908577
 2153         h1     72    bbb    H15   2153 0.13554100   1.008000   ; qtot 72.044118
 2154         h1     72    bbb    H16   2154 0.13554100   1.008000   ; qtot 72.179659
 2155         c3     72    bbb     C9   2155 -0.06455200  12.010000   ; qtot 72.115107
 2156         h1     72    bbb    H17   2156 0.13554100   1.008000   ; qtot 72.250648
 2157         h1     72    bbb    H18   2157 0.13554100   1.008000   ; qtot 72.386189
 2158         os     72    bbb     O1   2158 -0.62587700  16.000000   ; qtot 71.760312
 2159         hn     72    bbb    H19   2159 0.23982500   1.008000   ; qtot 72.000137
; residue   73 bbb rtp bbb q 1.0
 2160         n4     73    bbb     N1   2160 0.03726400  14.010000   ; qtot 72.037401
 2161         c3     73    bbb     C1   2161 -0.07020100  12.010000   ; qtot 71.967200
 2162         hx     73    bbb     H1   2162 0.12219000   1.008000   ; qtot 72.089390
 2163         hx     73    bbb     H2   2163 0.12219000   1.008000   ; qtot 72.211580
 2164         c3     73    bbb     C2   2164 -0.07020100  12.010000   ; qtot 72.141379
 2165         hx     73    bbb     H3   2165 0.12219000   1.008000   ; qtot 72.263569
 2166         hx     73    bbb     H4   2166 0.12219000   1.008000   ; qtot 72.385759
 2167         c3     73    bbb     C3   2167 -0.39007700  12.010000   ; qtot 71.995682
 2168         hx     73    bbb     H5   2168 0.14940300   1.008000   ; qtot 72.145085
 2169         hx     73    bbb     H6   2169 0.14940300   1.008000   ; qtot 72.294488
 2170         c3     73    bbb     C4   2170 0.18057300  12.010000   ; qtot 72.475061
 2171         hc     73    bbb     H7   2171 0.01788900   1.008000   ; qtot 72.492950
 2172         hc     73    bbb     H8   2172 0.01788900   1.008000   ; qtot 72.510839
 2173         c3     73    bbb     C5   2173 -0.11337700  12.010000   ; qtot 72.397462
 2174         hc     73    bbb     H9   2174 0.09515400   1.008000   ; qtot 72.492616
 2175         hc     73    bbb    H10   2175 0.09515400   1.008000   ; qtot 72.587770
 2176         c3     73    bbb     C6   2176 -0.11337700  12.010000   ; qtot 72.474393
 2177         hc     73    bbb    H11   2177 0.09515400   1.008000   ; qtot 72.569547
 2178         hc     73    bbb    H12   2178 0.09515400   1.008000   ; qtot 72.664701
 2179         c3     73    bbb     C7   2179 0.21842400  12.010000   ; qtot 72.883125
 2180         h1     73    bbb    H13   2180 0.04500300   1.008000   ; qtot 72.928128
 2181         h1     73    bbb    H14   2181 0.04500300   1.008000   ; qtot 72.973131
 2182         c3     73    bbb     C8   2182 -0.06455200  12.010000   ; qtot 72.908579
 2183         h1     73    bbb    H15   2183 0.13554100   1.008000   ; qtot 73.044120
 2184         h1     73    bbb    H16   2184 0.13554100   1.008000   ; qtot 73.179661
 2185         c3     73    bbb     C9   2185 -0.06455200  12.010000   ; qtot 73.115109
 2186         h1     73    bbb    H17   2186 0.13554100   1.008000   ; qtot 73.250650
 2187         h1     73    bbb    H18   2187 0.13554100   1.008000   ; qtot 73.386191
 2188         os     73    bbb     O1   2188 -0.62587700  16.000000   ; qtot 72.760314
 2189         hn     73    bbb    H19   2189 0.23982500   1.008000   ; qtot 73.000139
; residue   74 bbb rtp bbb q 1.0
 2190         n4     74    bbb     N1   2190 0.03726400  14.010000   ; qtot 73.037403
 2191         c3     74    bbb     C1   2191 -0.07020100  12.010000   ; qtot 72.967202
 2192         hx     74    bbb     H1   2192 0.12219000   1.008000   ; qtot 73.089392
 2193         hx     74    bbb     H2   2193 0.12219000   1.008000   ; qtot 73.211582
 2194         c3     74    bbb     C2   2194 -0.07020100  12.010000   ; qtot 73.141381
 2195         hx     74    bbb     H3   2195 0.12219000   1.008000   ; qtot 73.263571
 2196         hx     74    bbb     H4   2196 0.12219000   1.008000   ; qtot 73.385761
 2197         c3     74    bbb     C3   2197 -0.39007700  12.010000   ; qtot 72.995684
 2198         hx     74    bbb     H5   2198 0.14940300   1.008000   ; qtot 73.145087
 2199         hx     74    bbb     H6   2199 0.14940300   1.008000   ; qtot 73.294490
 2200         c3     74    bbb     C4   2200 0.18057300  12.010000   ; qtot 73.475063
 2201         hc     74    bbb     H7   2201 0.01788900   1.008000   ; qtot 73.492952
 2202         hc     74    bbb     H8   2202 0.01788900   1.008000   ; qtot 73.510841
 2203         c3     74    bbb     C5   2203 -0.11337700  12.010000   ; qtot 73.397464
 2204         hc     74    bbb     H9   2204 0.09515400   1.008000   ; qtot 73.492618
 2205         hc     74    bbb    H10   2205 0.09515400   1.008000   ; qtot 73.587772
 2206         c3     74    bbb     C6   2206 -0.11337700  12.010000   ; qtot 73.474395
 2207         hc     74    bbb    H11   2207 0.09515400   1.008000   ; qtot 73.569549
 2208         hc     74    bbb    H12   2208 0.09515400   1.008000   ; qtot 73.664703
 2209         c3     74    bbb     C7   2209 0.21842400  12.010000   ; qtot 73.883127
 2210         h1     74    bbb    H13   2210 0.04500300   1.008000   ; qtot 73.928130
 2211         h1     74    bbb    H14   2211 0.04500300   1.008000   ; qtot 73.973133
 2212         c3     74    bbb     C8   2212 -0.06455200  12.010000   ; qtot 73.908581
 2213         h1     74    bbb    H15   2213 0.13554100   1.008000   ; qtot 74.044122
 2214         h1     74    bbb    H16   2214 0.13554100   1.008000   ; qtot 74.179663
 2215         c3     74    bbb     C9   2215 -0.06455200  12.010000   ; qtot 74.115111
 2216         h1     74    bbb    H17   2216 0.13554100   1.008000   ; qtot 74.250652
 2217         h1     74    bbb    H18   2217 0.13554100   1.008000   ; qtot 74.386193
 2218         os     74    bbb     O1   2218 -0.62587700  16.000000   ; qtot 73.760316
 2219         hn     74    bbb    H19   2219 0.23982500   1.008000   ; qtot 74.000141
; residue   75 bbb rtp bbb q 1.0
 2220         n4     75    bbb     N1   2220 0.03726400  14.010000   ; qtot 74.037405
 2221         c3     75    bbb     C1   2221 -0.07020100  12.010000   ; qtot 73.967204
 2222         hx     75    bbb     H1   2222 0.12219000   1.008000   ; qtot 74.089394
 2223         hx     75    bbb     H2   2223 0.12219000   1.008000   ; qtot 74.211584
 2224         c3     75    bbb     C2   2224 -0.07020100  12.010000   ; qtot 74.141383
 2225         hx     75    bbb     H3   2225 0.12219000   1.008000   ; qtot 74.263573
 2226         hx     75    bbb     H4   2226 0.12219000   1.008000   ; qtot 74.385763
 2227         c3     75    bbb     C3   2227 -0.39007700  12.010000   ; qtot 73.995686
 2228         hx     75    bbb     H5   2228 0.14940300   1.008000   ; qtot 74.145089
 2229         hx     75    bbb     H6   2229 0.14940300   1.008000   ; qtot 74.294492
 2230         c3     75    bbb     C4   2230 0.18057300  12.010000   ; qtot 74.475065
 2231         hc     75    bbb     H7   2231 0.01788900   1.008000   ; qtot 74.492954
 2232         hc     75    bbb     H8   2232 0.01788900   1.008000   ; qtot 74.510843
 2233         c3     75    bbb     C5   2233 -0.11337700  12.010000   ; qtot 74.397466
 2234         hc     75    bbb     H9   2234 0.09515400   1.008000   ; qtot 74.492620
 2235         hc     75    bbb    H10   2235 0.09515400   1.008000   ; qtot 74.587774
 2236         c3     75    bbb     C6   2236 -0.11337700  12.010000   ; qtot 74.474397
 2237         hc     75    bbb    H11   2237 0.09515400   1.008000   ; qtot 74.569551
 2238         hc     75    bbb    H12   2238 0.09515400   1.008000   ; qtot 74.664705
 2239         c3     75    bbb     C7   2239 0.21842400  12.010000   ; qtot 74.883129
 2240         h1     75    bbb    H13   2240 0.04500300   1.008000   ; qtot 74.928132
 2241         h1     75    bbb    H14   2241 0.04500300   1.008000   ; qtot 74.973135
 2242         c3     75    bbb     C8   2242 -0.06455200  12.010000   ; qtot 74.908583
 2243         h1     75    bbb    H15   2243 0.13554100   1.008000   ; qtot 75.044124
 2244         h1     75    bbb    H16   2244 0.13554100   1.008000   ; qtot 75.179665
 2245         c3     75    bbb     C9   2245 -0.06455200  12.010000   ; qtot 75.115113
 2246         h1     75    bbb    H17   2246 0.13554100   1.008000   ; qtot 75.250654
 2247         h1     75    bbb    H18   2247 0.13554100   1.008000   ; qtot 75.386195
 2248         os     75    bbb     O1   2248 -0.62587700  16.000000   ; qtot 74.760318
 2249         hn     75    bbb    H19   2249 0.23982500   1.008000   ; qtot 75.000143
; residue   76 bbb rtp bbb q 1.0
 2250         n4     76    bbb     N1   2250 0.03726400  14.010000   ; qtot 75.037407
 2251         c3     76    bbb     C1   2251 -0.07020100  12.010000   ; qtot 74.967206
 2252         hx     76    bbb     H1   2252 0.12219000   1.008000   ; qtot 75.089396
 2253         hx     76    bbb     H2   2253 0.12219000   1.008000   ; qtot 75.211586
 2254         c3     76    bbb     C2   2254 -0.07020100  12.010000   ; qtot 75.141385
 2255         hx     76    bbb     H3   2255 0.12219000   1.008000   ; qtot 75.263575
 2256         hx     76    bbb     H4   2256 0.12219000   1.008000   ; qtot 75.385765
 2257         c3     76    bbb     C3   2257 -0.39007700  12.010000   ; qtot 74.995688
 2258         hx     76    bbb     H5   2258 0.14940300   1.008000   ; qtot 75.145091
 2259         hx     76    bbb     H6   2259 0.14940300   1.008000   ; qtot 75.294494
 2260         c3     76    bbb     C4   2260 0.18057300  12.010000   ; qtot 75.475067
 2261         hc     76    bbb     H7   2261 0.01788900   1.008000   ; qtot 75.492956
 2262         hc     76    bbb     H8   2262 0.01788900   1.008000   ; qtot 75.510845
 2263         c3     76    bbb     C5   2263 -0.11337700  12.010000   ; qtot 75.397468
 2264         hc     76    bbb     H9   2264 0.09515400   1.008000   ; qtot 75.492622
 2265         hc     76    bbb    H10   2265 0.09515400   1.008000   ; qtot 75.587776
 2266         c3     76    bbb     C6   2266 -0.11337700  12.010000   ; qtot 75.474399
 2267         hc     76    bbb    H11   2267 0.09515400   1.008000   ; qtot 75.569553
 2268         hc     76    bbb    H12   2268 0.09515400   1.008000   ; qtot 75.664707
 2269         c3     76    bbb     C7   2269 0.21842400  12.010000   ; qtot 75.883131
 2270         h1     76    bbb    H13   2270 0.04500300   1.008000   ; qtot 75.928134
 2271         h1     76    bbb    H14   2271 0.04500300   1.008000   ; qtot 75.973137
 2272         c3     76    bbb     C8   2272 -0.06455200  12.010000   ; qtot 75.908585
 2273         h1     76    bbb    H15   2273 0.13554100   1.008000   ; qtot 76.044126
 2274         h1     76    bbb    H16   2274 0.13554100   1.008000   ; qtot 76.179667
 2275         c3     76    bbb     C9   2275 -0.06455200  12.010000   ; qtot 76.115115
 2276         h1     76    bbb    H17   2276 0.13554100   1.008000   ; qtot 76.250656
 2277         h1     76    bbb    H18   2277 0.13554100   1.008000   ; qtot 76.386197
 2278         os     76    bbb     O1   2278 -0.62587700  16.000000   ; qtot 75.760320
 2279         hn     76    bbb    H19   2279 0.23982500   1.008000   ; qtot 76.000145
; residue   77 bbb rtp bbb q 1.0
 2280         n4     77    bbb     N1   2280 0.03726400  14.010000   ; qtot 76.037409
 2281         c3     77    bbb     C1   2281 -0.07020100  12.010000   ; qtot 75.967208
 2282         hx     77    bbb     H1   2282 0.12219000   1.008000   ; qtot 76.089398
 2283         hx     77    bbb     H2   2283 0.12219000   1.008000   ; qtot 76.211588
 2284         c3     77    bbb     C2   2284 -0.07020100  12.010000   ; qtot 76.141387
 2285         hx     77    bbb     H3   2285 0.12219000   1.008000   ; qtot 76.263577
 2286         hx     77    bbb     H4   2286 0.12219000   1.008000   ; qtot 76.385767
 2287         c3     77    bbb     C3   2287 -0.39007700  12.010000   ; qtot 75.995690
 2288         hx     77    bbb     H5   2288 0.14940300   1.008000   ; qtot 76.145093
 2289         hx     77    bbb     H6   2289 0.14940300   1.008000   ; qtot 76.294496
 2290         c3     77    bbb     C4   2290 0.18057300  12.010000   ; qtot 76.475069
 2291         hc     77    bbb     H7   2291 0.01788900   1.008000   ; qtot 76.492958
 2292         hc     77    bbb     H8   2292 0.01788900   1.008000   ; qtot 76.510847
 2293         c3     77    bbb     C5   2293 -0.11337700  12.010000   ; qtot 76.397470
 2294         hc     77    bbb     H9   2294 0.09515400   1.008000   ; qtot 76.492624
 2295         hc     77    bbb    H10   2295 0.09515400   1.008000   ; qtot 76.587778
 2296         c3     77    bbb     C6   2296 -0.11337700  12.010000   ; qtot 76.474401
 2297         hc     77    bbb    H11   2297 0.09515400   1.008000   ; qtot 76.569555
 2298         hc     77    bbb    H12   2298 0.09515400   1.008000   ; qtot 76.664709
 2299         c3     77    bbb     C7   2299 0.21842400  12.010000   ; qtot 76.883133
 2300         h1     77    bbb    H13   2300 0.04500300   1.008000   ; qtot 76.928136
 2301         h1     77    bbb    H14   2301 0.04500300   1.008000   ; qtot 76.973139
 2302         c3     77    bbb     C8   2302 -0.06455200  12.010000   ; qtot 76.908587
 2303         h1     77    bbb    H15   2303 0.13554100   1.008000   ; qtot 77.044128
 2304         h1     77    bbb    H16   2304 0.13554100   1.008000   ; qtot 77.179669
 2305         c3     77    bbb     C9   2305 -0.06455200  12.010000   ; qtot 77.115117
 2306         h1     77    bbb    H17   2306 0.13554100   1.008000   ; qtot 77.250658
 2307         h1     77    bbb    H18   2307 0.13554100   1.008000   ; qtot 77.386199
 2308         os     77    bbb     O1   2308 -0.62587700  16.000000   ; qtot 76.760322
 2309         hn     77    bbb    H19   2309 0.23982500   1.008000   ; qtot 77.000147
; residue   78 bbb rtp bbb q 1.0
 2310         n4     78    bbb     N1   2310 0.03726400  14.010000   ; qtot 77.037411
 2311         c3     78    bbb     C1   2311 -0.07020100  12.010000   ; qtot 76.967210
 2312         hx     78    bbb     H1   2312 0.12219000   1.008000   ; qtot 77.089400
 2313         hx     78    bbb     H2   2313 0.12219000   1.008000   ; qtot 77.211590
 2314         c3     78    bbb     C2   2314 -0.07020100  12.010000   ; qtot 77.141389
 2315         hx     78    bbb     H3   2315 0.12219000   1.008000   ; qtot 77.263579
 2316         hx     78    bbb     H4   2316 0.12219000   1.008000   ; qtot 77.385769
 2317         c3     78    bbb     C3   2317 -0.39007700  12.010000   ; qtot 76.995692
 2318         hx     78    bbb     H5   2318 0.14940300   1.008000   ; qtot 77.145095
 2319         hx     78    bbb     H6   2319 0.14940300   1.008000   ; qtot 77.294498
 2320         c3     78    bbb     C4   2320 0.18057300  12.010000   ; qtot 77.475071
 2321         hc     78    bbb     H7   2321 0.01788900   1.008000   ; qtot 77.492960
 2322         hc     78    bbb     H8   2322 0.01788900   1.008000   ; qtot 77.510849
 2323         c3     78    bbb     C5   2323 -0.11337700  12.010000   ; qtot 77.397472
 2324         hc     78    bbb     H9   2324 0.09515400   1.008000   ; qtot 77.492626
 2325         hc     78    bbb    H10   2325 0.09515400   1.008000   ; qtot 77.587780
 2326         c3     78    bbb     C6   2326 -0.11337700  12.010000   ; qtot 77.474403
 2327         hc     78    bbb    H11   2327 0.09515400   1.008000   ; qtot 77.569557
 2328         hc     78    bbb    H12   2328 0.09515400   1.008000   ; qtot 77.664711
 2329         c3     78    bbb     C7   2329 0.21842400  12.010000   ; qtot 77.883135
 2330         h1     78    bbb    H13   2330 0.04500300   1.008000   ; qtot 77.928138
 2331         h1     78    bbb    H14   2331 0.04500300   1.008000   ; qtot 77.973141
 2332         c3     78    bbb     C8   2332 -0.06455200  12.010000   ; qtot 77.908589
 2333         h1     78    bbb    H15   2333 0.13554100   1.008000   ; qtot 78.044130
 2334         h1     78    bbb    H16   2334 0.13554100   1.008000   ; qtot 78.179671
 2335         c3     78    bbb     C9   2335 -0.06455200  12.010000   ; qtot 78.115119
 2336         h1     78    bbb    H17   2336 0.13554100   1.008000   ; qtot 78.250660
 2337         h1     78    bbb    H18   2337 0.13554100   1.008000   ; qtot 78.386201
 2338         os     78    bbb     O1   2338 -0.62587700  16.000000   ; qtot 77.760324
 2339         hn     78    bbb    H19   2339 0.23982500   1.008000   ; qtot 78.000149
; residue   79 bbb rtp bbb q 1.0
 2340         n4     79    bbb     N1   2340 0.03726400  14.010000   ; qtot 78.037413
 2341         c3     79    bbb     C1   2341 -0.07020100  12.010000   ; qtot 77.967212
 2342         hx     79    bbb     H1   2342 0.12219000   1.008000   ; qtot 78.089402
 2343         hx     79    bbb     H2   2343 0.12219000   1.008000   ; qtot 78.211592
 2344         c3     79    bbb     C2   2344 -0.07020100  12.010000   ; qtot 78.141391
 2345         hx     79    bbb     H3   2345 0.12219000   1.008000   ; qtot 78.263581
 2346         hx     79    bbb     H4   2346 0.12219000   1.008000   ; qtot 78.385771
 2347         c3     79    bbb     C3   2347 -0.39007700  12.010000   ; qtot 77.995694
 2348         hx     79    bbb     H5   2348 0.14940300   1.008000   ; qtot 78.145097
 2349         hx     79    bbb     H6   2349 0.14940300   1.008000   ; qtot 78.294500
 2350         c3     79    bbb     C4   2350 0.18057300  12.010000   ; qtot 78.475073
 2351         hc     79    bbb     H7   2351 0.01788900   1.008000   ; qtot 78.492962
 2352         hc     79    bbb     H8   2352 0.01788900   1.008000   ; qtot 78.510851
 2353         c3     79    bbb     C5   2353 -0.11337700  12.010000   ; qtot 78.397474
 2354         hc     79    bbb     H9   2354 0.09515400   1.008000   ; qtot 78.492628
 2355         hc     79    bbb    H10   2355 0.09515400   1.008000   ; qtot 78.587782
 2356         c3     79    bbb     C6   2356 -0.11337700  12.010000   ; qtot 78.474405
 2357         hc     79    bbb    H11   2357 0.09515400   1.008000   ; qtot 78.569559
 2358         hc     79    bbb    H12   2358 0.09515400   1.008000   ; qtot 78.664713
 2359         c3     79    bbb     C7   2359 0.21842400  12.010000   ; qtot 78.883137
 2360         h1     79    bbb    H13   2360 0.04500300   1.008000   ; qtot 78.928140
 2361         h1     79    bbb    H14   2361 0.04500300   1.008000   ; qtot 78.973143
 2362         c3     79    bbb     C8   2362 -0.06455200  12.010000   ; qtot 78.908591
 2363         h1     79    bbb    H15   2363 0.13554100   1.008000   ; qtot 79.044132
 2364         h1     79    bbb    H16   2364 0.13554100   1.008000   ; qtot 79.179673
 2365         c3     79    bbb     C9   2365 -0.06455200  12.010000   ; qtot 79.115121
 2366         h1     79    bbb    H17   2366 0.13554100   1.008000   ; qtot 79.250662
 2367         h1     79    bbb    H18   2367 0.13554100   1.008000   ; qtot 79.386203
 2368         os     79    bbb     O1   2368 -0.62587700  16.000000   ; qtot 78.760326
 2369         hn     79    bbb    H19   2369 0.23982500   1.008000   ; qtot 79.000151
; residue   80 bbb rtp bbb q 1.0
 2370         n4     80    bbb     N1   2370 0.03726400  14.010000   ; qtot 79.037415
 2371         c3     80    bbb     C1   2371 -0.07020100  12.010000   ; qtot 78.967214
 2372         hx     80    bbb     H1   2372 0.12219000   1.008000   ; qtot 79.089404
 2373         hx     80    bbb     H2   2373 0.12219000   1.008000   ; qtot 79.211594
 2374         c3     80    bbb     C2   2374 -0.07020100  12.010000   ; qtot 79.141393
 2375         hx     80    bbb     H3   2375 0.12219000   1.008000   ; qtot 79.263583
 2376         hx     80    bbb     H4   2376 0.12219000   1.008000   ; qtot 79.385773
 2377         c3     80    bbb     C3   2377 -0.39007700  12.010000   ; qtot 78.995696
 2378         hx     80    bbb     H5   2378 0.14940300   1.008000   ; qtot 79.145099
 2379         hx     80    bbb     H6   2379 0.14940300   1.008000   ; qtot 79.294502
 2380         c3     80    bbb     C4   2380 0.18057300  12.010000   ; qtot 79.475075
 2381         hc     80    bbb     H7   2381 0.01788900   1.008000   ; qtot 79.492964
 2382         hc     80    bbb     H8   2382 0.01788900   1.008000   ; qtot 79.510853
 2383         c3     80    bbb     C5   2383 -0.11337700  12.010000   ; qtot 79.397476
 2384         hc     80    bbb     H9   2384 0.09515400   1.008000   ; qtot 79.492630
 2385         hc     80    bbb    H10   2385 0.09515400   1.008000   ; qtot 79.587784
 2386         c3     80    bbb     C6   2386 -0.11337700  12.010000   ; qtot 79.474407
 2387         hc     80    bbb    H11   2387 0.09515400   1.008000   ; qtot 79.569561
 2388         hc     80    bbb    H12   2388 0.09515400   1.008000   ; qtot 79.664715
 2389         c3     80    bbb     C7   2389 0.21842400  12.010000   ; qtot 79.883139
 2390         h1     80    bbb    H13   2390 0.04500300   1.008000   ; qtot 79.928142
 2391         h1     80    bbb    H14   2391 0.04500300   1.008000   ; qtot 79.973145
 2392         c3     80    bbb     C8   2392 -0.06455200  12.010000   ; qtot 79.908593
 2393         h1     80    bbb    H15   2393 0.13554100   1.008000   ; qtot 80.044134
 2394         h1     80    bbb    H16   2394 0.13554100   1.008000   ; qtot 80.179675
 2395         c3     80    bbb     C9   2395 -0.06455200  12.010000   ; qtot 80.115123
 2396         h1     80    bbb    H17   2396 0.13554100   1.008000   ; qtot 80.250664
 2397         h1     80    bbb    H18   2397 0.13554100   1.008000   ; qtot 80.386205
 2398         os     80    bbb     O1   2398 -0.62587700  16.000000   ; qtot 79.760328
 2399         hn     80    bbb    H19   2399 0.23982500   1.008000   ; qtot 80.000153
; residue   81 bbb rtp bbb q 1.0
 2400         n4     81    bbb     N1   2400 0.03726400  14.010000   ; qtot 80.037417
 2401         c3     81    bbb     C1   2401 -0.07020100  12.010000   ; qtot 79.967216
 2402         hx     81    bbb     H1   2402 0.12219000   1.008000   ; qtot 80.089406
 2403         hx     81    bbb     H2   2403 0.12219000   1.008000   ; qtot 80.211596
 2404         c3     81    bbb     C2   2404 -0.07020100  12.010000   ; qtot 80.141395
 2405         hx     81    bbb     H3   2405 0.12219000   1.008000   ; qtot 80.263585
 2406         hx     81    bbb     H4   2406 0.12219000   1.008000   ; qtot 80.385775
 2407         c3     81    bbb     C3   2407 -0.39007700  12.010000   ; qtot 79.995698
 2408         hx     81    bbb     H5   2408 0.14940300   1.008000   ; qtot 80.145101
 2409         hx     81    bbb     H6   2409 0.14940300   1.008000   ; qtot 80.294504
 2410         c3     81    bbb     C4   2410 0.18057300  12.010000   ; qtot 80.475077
 2411         hc     81    bbb     H7   2411 0.01788900   1.008000   ; qtot 80.492966
 2412         hc     81    bbb     H8   2412 0.01788900   1.008000   ; qtot 80.510855
 2413         c3     81    bbb     C5   2413 -0.11337700  12.010000   ; qtot 80.397478
 2414         hc     81    bbb     H9   2414 0.09515400   1.008000   ; qtot 80.492632
 2415         hc     81    bbb    H10   2415 0.09515400   1.008000   ; qtot 80.587786
 2416         c3     81    bbb     C6   2416 -0.11337700  12.010000   ; qtot 80.474409
 2417         hc     81    bbb    H11   2417 0.09515400   1.008000   ; qtot 80.569563
 2418         hc     81    bbb    H12   2418 0.09515400   1.008000   ; qtot 80.664717
 2419         c3     81    bbb     C7   2419 0.21842400  12.010000   ; qtot 80.883141
 2420         h1     81    bbb    H13   2420 0.04500300   1.008000   ; qtot 80.928144
 2421         h1     81    bbb    H14   2421 0.04500300   1.008000   ; qtot 80.973147
 2422         c3     81    bbb     C8   2422 -0.06455200  12.010000   ; qtot 80.908595
 2423         h1     81    bbb    H15   2423 0.13554100   1.008000   ; qtot 81.044136
 2424         h1     81    bbb    H16   2424 0.13554100   1.008000   ; qtot 81.179677
 2425         c3     81    bbb     C9   2425 -0.06455200  12.010000   ; qtot 81.115125
 2426         h1     81    bbb    H17   2426 0.13554100   1.008000   ; qtot 81.250666
 2427         h1     81    bbb    H18   2427 0.13554100   1.008000   ; qtot 81.386207
 2428         os     81    bbb     O1   2428 -0.62587700  16.000000   ; qtot 80.760330
 2429         hn     81    bbb    H19   2429 0.23982500   1.008000   ; qtot 81.000155
; residue   82 bbb rtp bbb q 1.0
 2430         n4     82    bbb     N1   2430 0.03726400  14.010000   ; qtot 81.037419
 2431         c3     82    bbb     C1   2431 -0.07020100  12.010000   ; qtot 80.967218
 2432         hx     82    bbb     H1   2432 0.12219000   1.008000   ; qtot 81.089408
 2433         hx     82    bbb     H2   2433 0.12219000   1.008000   ; qtot 81.211598
 2434         c3     82    bbb     C2   2434 -0.07020100  12.010000   ; qtot 81.141397
 2435         hx     82    bbb     H3   2435 0.12219000   1.008000   ; qtot 81.263587
 2436         hx     82    bbb     H4   2436 0.12219000   1.008000   ; qtot 81.385777
 2437         c3     82    bbb     C3   2437 -0.39007700  12.010000   ; qtot 80.995700
 2438         hx     82    bbb     H5   2438 0.14940300   1.008000   ; qtot 81.145103
 2439         hx     82    bbb     H6   2439 0.14940300   1.008000   ; qtot 81.294506
 2440         c3     82    bbb     C4   2440 0.18057300  12.010000   ; qtot 81.475079
 2441         hc     82    bbb     H7   2441 0.01788900   1.008000   ; qtot 81.492968
 2442         hc     82    bbb     H8   2442 0.01788900   1.008000   ; qtot 81.510857
 2443         c3     82    bbb     C5   2443 -0.11337700  12.010000   ; qtot 81.397480
 2444         hc     82    bbb     H9   2444 0.09515400   1.008000   ; qtot 81.492634
 2445         hc     82    bbb    H10   2445 0.09515400   1.008000   ; qtot 81.587788
 2446         c3     82    bbb     C6   2446 -0.11337700  12.010000   ; qtot 81.474411
 2447         hc     82    bbb    H11   2447 0.09515400   1.008000   ; qtot 81.569565
 2448         hc     82    bbb    H12   2448 0.09515400   1.008000   ; qtot 81.664719
 2449         c3     82    bbb     C7   2449 0.21842400  12.010000   ; qtot 81.883143
 2450         h1     82    bbb    H13   2450 0.04500300   1.008000   ; qtot 81.928146
 2451         h1     82    bbb    H14   2451 0.04500300   1.008000   ; qtot 81.973149
 2452         c3     82    bbb     C8   2452 -0.06455200  12.010000   ; qtot 81.908597
 2453         h1     82    bbb    H15   2453 0.13554100   1.008000   ; qtot 82.044138
 2454         h1     82    bbb    H16   2454 0.13554100   1.008000   ; qtot 82.179679
 2455         c3     82    bbb     C9   2455 -0.06455200  12.010000   ; qtot 82.115127
 2456         h1     82    bbb    H17   2456 0.13554100   1.008000   ; qtot 82.250668
 2457         h1     82    bbb    H18   2457 0.13554100   1.008000   ; qtot 82.386209
 2458         os     82    bbb     O1   2458 -0.62587700  16.000000   ; qtot 81.760332
 2459         hn     82    bbb    H19   2459 0.23982500   1.008000   ; qtot 82.000157
; residue   83 bbb rtp bbb q 1.0
 2460         n4     83    bbb     N1   2460 0.03726400  14.010000   ; qtot 82.037421
 2461         c3     83    bbb     C1   2461 -0.07020100  12.010000   ; qtot 81.967220
 2462         hx     83    bbb     H1   2462 0.12219000   1.008000   ; qtot 82.089410
 2463         hx     83    bbb     H2   2463 0.12219000   1.008000   ; qtot 82.211600
 2464         c3     83    bbb     C2   2464 -0.07020100  12.010000   ; qtot 82.141399
 2465         hx     83    bbb     H3   2465 0.12219000   1.008000   ; qtot 82.263589
 2466         hx     83    bbb     H4   2466 0.12219000   1.008000   ; qtot 82.385779
 2467         c3     83    bbb     C3   2467 -0.39007700  12.010000   ; qtot 81.995702
 2468         hx     83    bbb     H5   2468 0.14940300   1.008000   ; qtot 82.145105
 2469         hx     83    bbb     H6   2469 0.14940300   1.008000   ; qtot 82.294508
 2470         c3     83    bbb     C4   2470 0.18057300  12.010000   ; qtot 82.475081
 2471         hc     83    bbb     H7   2471 0.01788900   1.008000   ; qtot 82.492970
 2472         hc     83    bbb     H8   2472 0.01788900   1.008000   ; qtot 82.510859
 2473         c3     83    bbb     C5   2473 -0.11337700  12.010000   ; qtot 82.397482
 2474         hc     83    bbb     H9   2474 0.09515400   1.008000   ; qtot 82.492636
 2475         hc     83    bbb    H10   2475 0.09515400   1.008000   ; qtot 82.587790
 2476         c3     83    bbb     C6   2476 -0.11337700  12.010000   ; qtot 82.474413
 2477         hc     83    bbb    H11   2477 0.09515400   1.008000   ; qtot 82.569567
 2478         hc     83    bbb    H12   2478 0.09515400   1.008000   ; qtot 82.664721
 2479         c3     83    bbb     C7   2479 0.21842400  12.010000   ; qtot 82.883145
 2480         h1     83    bbb    H13   2480 0.04500300   1.008000   ; qtot 82.928148
 2481         h1     83    bbb    H14   2481 0.04500300   1.008000   ; qtot 82.973151
 2482         c3     83    bbb     C8   2482 -0.06455200  12.010000   ; qtot 82.908599
 2483         h1     83    bbb    H15   2483 0.13554100   1.008000   ; qtot 83.044140
 2484         h1     83    bbb    H16   2484 0.13554100   1.008000   ; qtot 83.179681
 2485         c3     83    bbb     C9   2485 -0.06455200  12.010000   ; qtot 83.115129
 2486         h1     83    bbb    H17   2486 0.13554100   1.008000   ; qtot 83.250670
 2487         h1     83    bbb    H18   2487 0.13554100   1.008000   ; qtot 83.386211
 2488         os     83    bbb     O1   2488 -0.62587700  16.000000   ; qtot 82.760334
 2489         hn     83    bbb    H19   2489 0.23982500   1.008000   ; qtot 83.000159
; residue   84 bbb rtp bbb q 1.0
 2490         n4     84    bbb     N1   2490 0.03726400  14.010000   ; qtot 83.037423
 2491         c3     84    bbb     C1   2491 -0.07020100  12.010000   ; qtot 82.967222
 2492         hx     84    bbb     H1   2492 0.12219000   1.008000   ; qtot 83.089412
 2493         hx     84    bbb     H2   2493 0.12219000   1.008000   ; qtot 83.211602
 2494         c3     84    bbb     C2   2494 -0.07020100  12.010000   ; qtot 83.141401
 2495         hx     84    bbb     H3   2495 0.12219000   1.008000   ; qtot 83.263591
 2496         hx     84    bbb     H4   2496 0.12219000   1.008000   ; qtot 83.385781
 2497         c3     84    bbb     C3   2497 -0.39007700  12.010000   ; qtot 82.995704
 2498         hx     84    bbb     H5   2498 0.14940300   1.008000   ; qtot 83.145107
 2499         hx     84    bbb     H6   2499 0.14940300   1.008000   ; qtot 83.294510
 2500         c3     84    bbb     C4   2500 0.18057300  12.010000   ; qtot 83.475083
 2501         hc     84    bbb     H7   2501 0.01788900   1.008000   ; qtot 83.492972
 2502         hc     84    bbb     H8   2502 0.01788900   1.008000   ; qtot 83.510861
 2503         c3     84    bbb     C5   2503 -0.11337700  12.010000   ; qtot 83.397484
 2504         hc     84    bbb     H9   2504 0.09515400   1.008000   ; qtot 83.492638
 2505         hc     84    bbb    H10   2505 0.09515400   1.008000   ; qtot 83.587792
 2506         c3     84    bbb     C6   2506 -0.11337700  12.010000   ; qtot 83.474415
 2507         hc     84    bbb    H11   2507 0.09515400   1.008000   ; qtot 83.569569
 2508         hc     84    bbb    H12   2508 0.09515400   1.008000   ; qtot 83.664723
 2509         c3     84    bbb     C7   2509 0.21842400  12.010000   ; qtot 83.883147
 2510         h1     84    bbb    H13   2510 0.04500300   1.008000   ; qtot 83.928150
 2511         h1     84    bbb    H14   2511 0.04500300   1.008000   ; qtot 83.973153
 2512         c3     84    bbb     C8   2512 -0.06455200  12.010000   ; qtot 83.908601
 2513         h1     84    bbb    H15   2513 0.13554100   1.008000   ; qtot 84.044142
 2514         h1     84    bbb    H16   2514 0.13554100   1.008000   ; qtot 84.179683
 2515         c3     84    bbb     C9   2515 -0.06455200  12.010000   ; qtot 84.115131
 2516         h1     84    bbb    H17   2516 0.13554100   1.008000   ; qtot 84.250672
 2517         h1     84    bbb    H18   2517 0.13554100   1.008000   ; qtot 84.386213
 2518         os     84    bbb     O1   2518 -0.62587700  16.000000   ; qtot 83.760336
 2519         hn     84    bbb    H19   2519 0.23982500   1.008000   ; qtot 84.000161
; residue   85 bbb rtp bbb q 1.0
 2520         n4     85    bbb     N1   2520 0.03726400  14.010000   ; qtot 84.037425
 2521         c3     85    bbb     C1   2521 -0.07020100  12.010000   ; qtot 83.967224
 2522         hx     85    bbb     H1   2522 0.12219000   1.008000   ; qtot 84.089414
 2523         hx     85    bbb     H2   2523 0.12219000   1.008000   ; qtot 84.211604
 2524         c3     85    bbb     C2   2524 -0.07020100  12.010000   ; qtot 84.141403
 2525         hx     85    bbb     H3   2525 0.12219000   1.008000   ; qtot 84.263593
 2526         hx     85    bbb     H4   2526 0.12219000   1.008000   ; qtot 84.385783
 2527         c3     85    bbb     C3   2527 -0.39007700  12.010000   ; qtot 83.995706
 2528         hx     85    bbb     H5   2528 0.14940300   1.008000   ; qtot 84.145109
 2529         hx     85    bbb     H6   2529 0.14940300   1.008000   ; qtot 84.294512
 2530         c3     85    bbb     C4   2530 0.18057300  12.010000   ; qtot 84.475085
 2531         hc     85    bbb     H7   2531 0.01788900   1.008000   ; qtot 84.492974
 2532         hc     85    bbb     H8   2532 0.01788900   1.008000   ; qtot 84.510863
 2533         c3     85    bbb     C5   2533 -0.11337700  12.010000   ; qtot 84.397486
 2534         hc     85    bbb     H9   2534 0.09515400   1.008000   ; qtot 84.492640
 2535         hc     85    bbb    H10   2535 0.09515400   1.008000   ; qtot 84.587794
 2536         c3     85    bbb     C6   2536 -0.11337700  12.010000   ; qtot 84.474417
 2537         hc     85    bbb    H11   2537 0.09515400   1.008000   ; qtot 84.569571
 2538         hc     85    bbb    H12   2538 0.09515400   1.008000   ; qtot 84.664725
 2539         c3     85    bbb     C7   2539 0.21842400  12.010000   ; qtot 84.883149
 2540         h1     85    bbb    H13   2540 0.04500300   1.008000   ; qtot 84.928152
 2541         h1     85    bbb    H14   2541 0.04500300   1.008000   ; qtot 84.973155
 2542         c3     85    bbb     C8   2542 -0.06455200  12.010000   ; qtot 84.908603
 2543         h1     85    bbb    H15   2543 0.13554100   1.008000   ; qtot 85.044144
 2544         h1     85    bbb    H16   2544 0.13554100   1.008000   ; qtot 85.179685
 2545         c3     85    bbb     C9   2545 -0.06455200  12.010000   ; qtot 85.115133
 2546         h1     85    bbb    H17   2546 0.13554100   1.008000   ; qtot 85.250674
 2547         h1     85    bbb    H18   2547 0.13554100   1.008000   ; qtot 85.386215
 2548         os     85    bbb     O1   2548 -0.62587700  16.000000   ; qtot 84.760338
 2549         hn     85    bbb    H19   2549 0.23982500   1.008000   ; qtot 85.000163
; residue   86 bbb rtp bbb q 1.0
 2550         n4     86    bbb     N1   2550 0.03726400  14.010000   ; qtot 85.037427
 2551         c3     86    bbb     C1   2551 -0.07020100  12.010000   ; qtot 84.967226
 2552         hx     86    bbb     H1   2552 0.12219000   1.008000   ; qtot 85.089416
 2553         hx     86    bbb     H2   2553 0.12219000   1.008000   ; qtot 85.211606
 2554         c3     86    bbb     C2   2554 -0.07020100  12.010000   ; qtot 85.141405
 2555         hx     86    bbb     H3   2555 0.12219000   1.008000   ; qtot 85.263595
 2556         hx     86    bbb     H4   2556 0.12219000   1.008000   ; qtot 85.385785
 2557         c3     86    bbb     C3   2557 -0.39007700  12.010000   ; qtot 84.995708
 2558         hx     86    bbb     H5   2558 0.14940300   1.008000   ; qtot 85.145111
 2559         hx     86    bbb     H6   2559 0.14940300   1.008000   ; qtot 85.294514
 2560         c3     86    bbb     C4   2560 0.18057300  12.010000   ; qtot 85.475087
 2561         hc     86    bbb     H7   2561 0.01788900   1.008000   ; qtot 85.492976
 2562         hc     86    bbb     H8   2562 0.01788900   1.008000   ; qtot 85.510865
 2563         c3     86    bbb     C5   2563 -0.11337700  12.010000   ; qtot 85.397488
 2564         hc     86    bbb     H9   2564 0.09515400   1.008000   ; qtot 85.492642
 2565         hc     86    bbb    H10   2565 0.09515400   1.008000   ; qtot 85.587796
 2566         c3     86    bbb     C6   2566 -0.11337700  12.010000   ; qtot 85.474419
 2567         hc     86    bbb    H11   2567 0.09515400   1.008000   ; qtot 85.569573
 2568         hc     86    bbb    H12   2568 0.09515400   1.008000   ; qtot 85.664727
 2569         c3     86    bbb     C7   2569 0.21842400  12.010000   ; qtot 85.883151
 2570         h1     86    bbb    H13   2570 0.04500300   1.008000   ; qtot 85.928154
 2571         h1     86    bbb    H14   2571 0.04500300   1.008000   ; qtot 85.973157
 2572         c3     86    bbb     C8   2572 -0.06455200  12.010000   ; qtot 85.908605
 2573         h1     86    bbb    H15   2573 0.13554100   1.008000   ; qtot 86.044146
 2574         h1     86    bbb    H16   2574 0.13554100   1.008000   ; qtot 86.179687
 2575         c3     86    bbb     C9   2575 -0.06455200  12.010000   ; qtot 86.115135
 2576         h1     86    bbb    H17   2576 0.13554100   1.008000   ; qtot 86.250676
 2577         h1     86    bbb    H18   2577 0.13554100   1.008000   ; qtot 86.386217
 2578         os     86    bbb     O1   2578 -0.62587700  16.000000   ; qtot 85.760340
 2579         hn     86    bbb    H19   2579 0.23982500   1.008000   ; qtot 86.000165
; residue   87 bbb rtp bbb q 1.0
 2580         n4     87    bbb     N1   2580 0.03726400  14.010000   ; qtot 86.037429
 2581         c3     87    bbb     C1   2581 -0.07020100  12.010000   ; qtot 85.967228
 2582         hx     87    bbb     H1   2582 0.12219000   1.008000   ; qtot 86.089418
 2583         hx     87    bbb     H2   2583 0.12219000   1.008000   ; qtot 86.211608
 2584         c3     87    bbb     C2   2584 -0.07020100  12.010000   ; qtot 86.141407
 2585         hx     87    bbb     H3   2585 0.12219000   1.008000   ; qtot 86.263597
 2586         hx     87    bbb     H4   2586 0.12219000   1.008000   ; qtot 86.385787
 2587         c3     87    bbb     C3   2587 -0.39007700  12.010000   ; qtot 85.995710
 2588         hx     87    bbb     H5   2588 0.14940300   1.008000   ; qtot 86.145113
 2589         hx     87    bbb     H6   2589 0.14940300   1.008000   ; qtot 86.294516
 2590         c3     87    bbb     C4   2590 0.18057300  12.010000   ; qtot 86.475089
 2591         hc     87    bbb     H7   2591 0.01788900   1.008000   ; qtot 86.492978
 2592         hc     87    bbb     H8   2592 0.01788900   1.008000   ; qtot 86.510867
 2593         c3     87    bbb     C5   2593 -0.11337700  12.010000   ; qtot 86.397490
 2594         hc     87    bbb     H9   2594 0.09515400   1.008000   ; qtot 86.492644
 2595         hc     87    bbb    H10   2595 0.09515400   1.008000   ; qtot 86.587798
 2596         c3     87    bbb     C6   2596 -0.11337700  12.010000   ; qtot 86.474421
 2597         hc     87    bbb    H11   2597 0.09515400   1.008000   ; qtot 86.569575
 2598         hc     87    bbb    H12   2598 0.09515400   1.008000   ; qtot 86.664729
 2599         c3     87    bbb     C7   2599 0.21842400  12.010000   ; qtot 86.883153
 2600         h1     87    bbb    H13   2600 0.04500300   1.008000   ; qtot 86.928156
 2601         h1     87    bbb    H14   2601 0.04500300   1.008000   ; qtot 86.973159
 2602         c3     87    bbb     C8   2602 -0.06455200  12.010000   ; qtot 86.908607
 2603         h1     87    bbb    H15   2603 0.13554100   1.008000   ; qtot 87.044148
 2604         h1     87    bbb    H16   2604 0.13554100   1.008000   ; qtot 87.179689
 2605         c3     87    bbb     C9   2605 -0.06455200  12.010000   ; qtot 87.115137
 2606         h1     87    bbb    H17   2606 0.13554100   1.008000   ; qtot 87.250678
 2607         h1     87    bbb    H18   2607 0.13554100   1.008000   ; qtot 87.386219
 2608         os     87    bbb     O1   2608 -0.62587700  16.000000   ; qtot 86.760342
 2609         hn     87    bbb    H19   2609 0.23982500   1.008000   ; qtot 87.000167
; residue   88 bbb rtp bbb q 1.0
 2610         n4     88    bbb     N1   2610 0.03726400  14.010000   ; qtot 87.037431
 2611         c3     88    bbb     C1   2611 -0.07020100  12.010000   ; qtot 86.967230
 2612         hx     88    bbb     H1   2612 0.12219000   1.008000   ; qtot 87.089420
 2613         hx     88    bbb     H2   2613 0.12219000   1.008000   ; qtot 87.211610
 2614         c3     88    bbb     C2   2614 -0.07020100  12.010000   ; qtot 87.141409
 2615         hx     88    bbb     H3   2615 0.12219000   1.008000   ; qtot 87.263599
 2616         hx     88    bbb     H4   2616 0.12219000   1.008000   ; qtot 87.385789
 2617         c3     88    bbb     C3   2617 -0.39007700  12.010000   ; qtot 86.995712
 2618         hx     88    bbb     H5   2618 0.14940300   1.008000   ; qtot 87.145115
 2619         hx     88    bbb     H6   2619 0.14940300   1.008000   ; qtot 87.294518
 2620         c3     88    bbb     C4   2620 0.18057300  12.010000   ; qtot 87.475091
 2621         hc     88    bbb     H7   2621 0.01788900   1.008000   ; qtot 87.492980
 2622         hc     88    bbb     H8   2622 0.01788900   1.008000   ; qtot 87.510869
 2623         c3     88    bbb     C5   2623 -0.11337700  12.010000   ; qtot 87.397492
 2624         hc     88    bbb     H9   2624 0.09515400   1.008000   ; qtot 87.492646
 2625         hc     88    bbb    H10   2625 0.09515400   1.008000   ; qtot 87.587800
 2626         c3     88    bbb     C6   2626 -0.11337700  12.010000   ; qtot 87.474423
 2627         hc     88    bbb    H11   2627 0.09515400   1.008000   ; qtot 87.569577
 2628         hc     88    bbb    H12   2628 0.09515400   1.008000   ; qtot 87.664731
 2629         c3     88    bbb     C7   2629 0.21842400  12.010000   ; qtot 87.883155
 2630         h1     88    bbb    H13   2630 0.04500300   1.008000   ; qtot 87.928158
 2631         h1     88    bbb    H14   2631 0.04500300   1.008000   ; qtot 87.973161
 2632         c3     88    bbb     C8   2632 -0.06455200  12.010000   ; qtot 87.908609
 2633         h1     88    bbb    H15   2633 0.13554100   1.008000   ; qtot 88.044150
 2634         h1     88    bbb    H16   2634 0.13554100   1.008000   ; qtot 88.179691
 2635         c3     88    bbb     C9   2635 -0.06455200  12.010000   ; qtot 88.115139
 2636         h1     88    bbb    H17   2636 0.13554100   1.008000   ; qtot 88.250680
 2637         h1     88    bbb    H18   2637 0.13554100   1.008000   ; qtot 88.386221
 2638         os     88    bbb     O1   2638 -0.62587700  16.000000   ; qtot 87.760344
 2639         hn     88    bbb    H19   2639 0.23982500   1.008000   ; qtot 88.000169
; residue   89 bbb rtp bbb q 1.0
 2640         n4     89    bbb     N1   2640 0.03726400  14.010000   ; qtot 88.037433
 2641         c3     89    bbb     C1   2641 -0.07020100  12.010000   ; qtot 87.967232
 2642         hx     89    bbb     H1   2642 0.12219000   1.008000   ; qtot 88.089422
 2643         hx     89    bbb     H2   2643 0.12219000   1.008000   ; qtot 88.211612
 2644         c3     89    bbb     C2   2644 -0.07020100  12.010000   ; qtot 88.141411
 2645         hx     89    bbb     H3   2645 0.12219000   1.008000   ; qtot 88.263601
 2646         hx     89    bbb     H4   2646 0.12219000   1.008000   ; qtot 88.385791
 2647         c3     89    bbb     C3   2647 -0.39007700  12.010000   ; qtot 87.995714
 2648         hx     89    bbb     H5   2648 0.14940300   1.008000   ; qtot 88.145117
 2649         hx     89    bbb     H6   2649 0.14940300   1.008000   ; qtot 88.294520
 2650         c3     89    bbb     C4   2650 0.18057300  12.010000   ; qtot 88.475093
 2651         hc     89    bbb     H7   2651 0.01788900   1.008000   ; qtot 88.492982
 2652         hc     89    bbb     H8   2652 0.01788900   1.008000   ; qtot 88.510871
 2653         c3     89    bbb     C5   2653 -0.11337700  12.010000   ; qtot 88.397494
 2654         hc     89    bbb     H9   2654 0.09515400   1.008000   ; qtot 88.492648
 2655         hc     89    bbb    H10   2655 0.09515400   1.008000   ; qtot 88.587802
 2656         c3     89    bbb     C6   2656 -0.11337700  12.010000   ; qtot 88.474425
 2657         hc     89    bbb    H11   2657 0.09515400   1.008000   ; qtot 88.569579
 2658         hc     89    bbb    H12   2658 0.09515400   1.008000   ; qtot 88.664733
 2659         c3     89    bbb     C7   2659 0.21842400  12.010000   ; qtot 88.883157
 2660         h1     89    bbb    H13   2660 0.04500300   1.008000   ; qtot 88.928160
 2661         h1     89    bbb    H14   2661 0.04500300   1.008000   ; qtot 88.973163
 2662         c3     89    bbb     C8   2662 -0.06455200  12.010000   ; qtot 88.908611
 2663         h1     89    bbb    H15   2663 0.13554100   1.008000   ; qtot 89.044152
 2664         h1     89    bbb    H16   2664 0.13554100   1.008000   ; qtot 89.179693
 2665         c3     89    bbb     C9   2665 -0.06455200  12.010000   ; qtot 89.115141
 2666         h1     89    bbb    H17   2666 0.13554100   1.008000   ; qtot 89.250682
 2667         h1     89    bbb    H18   2667 0.13554100   1.008000   ; qtot 89.386223
 2668         os     89    bbb     O1   2668 -0.62587700  16.000000   ; qtot 88.760346
 2669         hn     89    bbb    H19   2669 0.23982500   1.008000   ; qtot 89.000171
; residue   90 bbb rtp bbb q 1.0
 2670         n4     90    bbb     N1   2670 0.03726400  14.010000   ; qtot 89.037435
 2671         c3     90    bbb     C1   2671 -0.07020100  12.010000   ; qtot 88.967234
 2672         hx     90    bbb     H1   2672 0.12219000   1.008000   ; qtot 89.089424
 2673         hx     90    bbb     H2   2673 0.12219000   1.008000   ; qtot 89.211614
 2674         c3     90    bbb     C2   2674 -0.07020100  12.010000   ; qtot 89.141413
 2675         hx     90    bbb     H3   2675 0.12219000   1.008000   ; qtot 89.263603
 2676         hx     90    bbb     H4   2676 0.12219000   1.008000   ; qtot 89.385793
 2677         c3     90    bbb     C3   2677 -0.39007700  12.010000   ; qtot 88.995716
 2678         hx     90    bbb     H5   2678 0.14940300   1.008000   ; qtot 89.145119
 2679         hx     90    bbb     H6   2679 0.14940300   1.008000   ; qtot 89.294522
 2680         c3     90    bbb     C4   2680 0.18057300  12.010000   ; qtot 89.475095
 2681         hc     90    bbb     H7   2681 0.01788900   1.008000   ; qtot 89.492984
 2682         hc     90    bbb     H8   2682 0.01788900   1.008000   ; qtot 89.510873
 2683         c3     90    bbb     C5   2683 -0.11337700  12.010000   ; qtot 89.397496
 2684         hc     90    bbb     H9   2684 0.09515400   1.008000   ; qtot 89.492650
 2685         hc     90    bbb    H10   2685 0.09515400   1.008000   ; qtot 89.587804
 2686         c3     90    bbb     C6   2686 -0.11337700  12.010000   ; qtot 89.474427
 2687         hc     90    bbb    H11   2687 0.09515400   1.008000   ; qtot 89.569581
 2688         hc     90    bbb    H12   2688 0.09515400   1.008000   ; qtot 89.664735
 2689         c3     90    bbb     C7   2689 0.21842400  12.010000   ; qtot 89.883159
 2690         h1     90    bbb    H13   2690 0.04500300   1.008000   ; qtot 89.928162
 2691         h1     90    bbb    H14   2691 0.04500300   1.008000   ; qtot 89.973165
 2692         c3     90    bbb     C8   2692 -0.06455200  12.010000   ; qtot 89.908613
 2693         h1     90    bbb    H15   2693 0.13554100   1.008000   ; qtot 90.044154
 2694         h1     90    bbb    H16   2694 0.13554100   1.008000   ; qtot 90.179695
 2695         c3     90    bbb     C9   2695 -0.06455200  12.010000   ; qtot 90.115143
 2696         h1     90    bbb    H17   2696 0.13554100   1.008000   ; qtot 90.250684
 2697         h1     90    bbb    H18   2697 0.13554100   1.008000   ; qtot 90.386225
 2698         os     90    bbb     O1   2698 -0.62587700  16.000000   ; qtot 89.760348
 2699         hn     90    bbb    H19   2699 0.23982500   1.008000   ; qtot 90.000173
; residue   91 bbb rtp bbb q 1.0
 2700         n4     91    bbb     N1   2700 0.03726400  14.010000   ; qtot 90.037437
 2701         c3     91    bbb     C1   2701 -0.07020100  12.010000   ; qtot 89.967236
 2702         hx     91    bbb     H1   2702 0.12219000   1.008000   ; qtot 90.089426
 2703         hx     91    bbb     H2   2703 0.12219000   1.008000   ; qtot 90.211616
 2704         c3     91    bbb     C2   2704 -0.07020100  12.010000   ; qtot 90.141415
 2705         hx     91    bbb     H3   2705 0.12219000   1.008000   ; qtot 90.263605
 2706         hx     91    bbb     H4   2706 0.12219000   1.008000   ; qtot 90.385795
 2707         c3     91    bbb     C3   2707 -0.39007700  12.010000   ; qtot 89.995718
 2708         hx     91    bbb     H5   2708 0.14940300   1.008000   ; qtot 90.145121
 2709         hx     91    bbb     H6   2709 0.14940300   1.008000   ; qtot 90.294524
 2710         c3     91    bbb     C4   2710 0.18057300  12.010000   ; qtot 90.475097
 2711         hc     91    bbb     H7   2711 0.01788900   1.008000   ; qtot 90.492986
 2712         hc     91    bbb     H8   2712 0.01788900   1.008000   ; qtot 90.510875
 2713         c3     91    bbb     C5   2713 -0.11337700  12.010000   ; qtot 90.397498
 2714         hc     91    bbb     H9   2714 0.09515400   1.008000   ; qtot 90.492652
 2715         hc     91    bbb    H10   2715 0.09515400   1.008000   ; qtot 90.587806
 2716         c3     91    bbb     C6   2716 -0.11337700  12.010000   ; qtot 90.474429
 2717         hc     91    bbb    H11   2717 0.09515400   1.008000   ; qtot 90.569583
 2718         hc     91    bbb    H12   2718 0.09515400   1.008000   ; qtot 90.664737
 2719         c3     91    bbb     C7   2719 0.21842400  12.010000   ; qtot 90.883161
 2720         h1     91    bbb    H13   2720 0.04500300   1.008000   ; qtot 90.928164
 2721         h1     91    bbb    H14   2721 0.04500300   1.008000   ; qtot 90.973167
 2722         c3     91    bbb     C8   2722 -0.06455200  12.010000   ; qtot 90.908615
 2723         h1     91    bbb    H15   2723 0.13554100   1.008000   ; qtot 91.044156
 2724         h1     91    bbb    H16   2724 0.13554100   1.008000   ; qtot 91.179697
 2725         c3     91    bbb     C9   2725 -0.06455200  12.010000   ; qtot 91.115145
 2726         h1     91    bbb    H17   2726 0.13554100   1.008000   ; qtot 91.250686
 2727         h1     91    bbb    H18   2727 0.13554100   1.008000   ; qtot 91.386227
 2728         os     91    bbb     O1   2728 -0.62587700  16.000000   ; qtot 90.760350
 2729         hn     91    bbb    H19   2729 0.23982500   1.008000   ; qtot 91.000175
; residue   92 bbb rtp bbb q 1.0
 2730         n4     92    bbb     N1   2730 0.03726400  14.010000   ; qtot 91.037439
 2731         c3     92    bbb     C1   2731 -0.07020100  12.010000   ; qtot 90.967238
 2732         hx     92    bbb     H1   2732 0.12219000   1.008000   ; qtot 91.089428
 2733         hx     92    bbb     H2   2733 0.12219000   1.008000   ; qtot 91.211618
 2734         c3     92    bbb     C2   2734 -0.07020100  12.010000   ; qtot 91.141417
 2735         hx     92    bbb     H3   2735 0.12219000   1.008000   ; qtot 91.263607
 2736         hx     92    bbb     H4   2736 0.12219000   1.008000   ; qtot 91.385797
 2737         c3     92    bbb     C3   2737 -0.39007700  12.010000   ; qtot 90.995720
 2738         hx     92    bbb     H5   2738 0.14940300   1.008000   ; qtot 91.145123
 2739         hx     92    bbb     H6   2739 0.14940300   1.008000   ; qtot 91.294526
 2740         c3     92    bbb     C4   2740 0.18057300  12.010000   ; qtot 91.475099
 2741         hc     92    bbb     H7   2741 0.01788900   1.008000   ; qtot 91.492988
 2742         hc     92    bbb     H8   2742 0.01788900   1.008000   ; qtot 91.510877
 2743         c3     92    bbb     C5   2743 -0.11337700  12.010000   ; qtot 91.397500
 2744         hc     92    bbb     H9   2744 0.09515400   1.008000   ; qtot 91.492654
 2745         hc     92    bbb    H10   2745 0.09515400   1.008000   ; qtot 91.587808
 2746         c3     92    bbb     C6   2746 -0.11337700  12.010000   ; qtot 91.474431
 2747         hc     92    bbb    H11   2747 0.09515400   1.008000   ; qtot 91.569585
 2748         hc     92    bbb    H12   2748 0.09515400   1.008000   ; qtot 91.664739
 2749         c3     92    bbb     C7   2749 0.21842400  12.010000   ; qtot 91.883163
 2750         h1     92    bbb    H13   2750 0.04500300   1.008000   ; qtot 91.928166
 2751         h1     92    bbb    H14   2751 0.04500300   1.008000   ; qtot 91.973169
 2752         c3     92    bbb     C8   2752 -0.06455200  12.010000   ; qtot 91.908617
 2753         h1     92    bbb    H15   2753 0.13554100   1.008000   ; qtot 92.044158
 2754         h1     92    bbb    H16   2754 0.13554100   1.008000   ; qtot 92.179699
 2755         c3     92    bbb     C9   2755 -0.06455200  12.010000   ; qtot 92.115147
 2756         h1     92    bbb    H17   2756 0.13554100   1.008000   ; qtot 92.250688
 2757         h1     92    bbb    H18   2757 0.13554100   1.008000   ; qtot 92.386229
 2758         os     92    bbb     O1   2758 -0.62587700  16.000000   ; qtot 91.760352
 2759         hn     92    bbb    H19   2759 0.23982500   1.008000   ; qtot 92.000177
; residue   93 bbb rtp bbb q 1.0
 2760         n4     93    bbb     N1   2760 0.03726400  14.010000   ; qtot 92.037441
 2761         c3     93    bbb     C1   2761 -0.07020100  12.010000   ; qtot 91.967240
 2762         hx     93    bbb     H1   2762 0.12219000   1.008000   ; qtot 92.089430
 2763         hx     93    bbb     H2   2763 0.12219000   1.008000   ; qtot 92.211620
 2764         c3     93    bbb     C2   2764 -0.07020100  12.010000   ; qtot 92.141419
 2765         hx     93    bbb     H3   2765 0.12219000   1.008000   ; qtot 92.263609
 2766         hx     93    bbb     H4   2766 0.12219000   1.008000   ; qtot 92.385799
 2767         c3     93    bbb     C3   2767 -0.39007700  12.010000   ; qtot 91.995722
 2768         hx     93    bbb     H5   2768 0.14940300   1.008000   ; qtot 92.145125
 2769         hx     93    bbb     H6   2769 0.14940300   1.008000   ; qtot 92.294528
 2770         c3     93    bbb     C4   2770 0.18057300  12.010000   ; qtot 92.475101
 2771         hc     93    bbb     H7   2771 0.01788900   1.008000   ; qtot 92.492990
 2772         hc     93    bbb     H8   2772 0.01788900   1.008000   ; qtot 92.510879
 2773         c3     93    bbb     C5   2773 -0.11337700  12.010000   ; qtot 92.397502
 2774         hc     93    bbb     H9   2774 0.09515400   1.008000   ; qtot 92.492656
 2775         hc     93    bbb    H10   2775 0.09515400   1.008000   ; qtot 92.587810
 2776         c3     93    bbb     C6   2776 -0.11337700  12.010000   ; qtot 92.474433
 2777         hc     93    bbb    H11   2777 0.09515400   1.008000   ; qtot 92.569587
 2778         hc     93    bbb    H12   2778 0.09515400   1.008000   ; qtot 92.664741
 2779         c3     93    bbb     C7   2779 0.21842400  12.010000   ; qtot 92.883165
 2780         h1     93    bbb    H13   2780 0.04500300   1.008000   ; qtot 92.928168
 2781         h1     93    bbb    H14   2781 0.04500300   1.008000   ; qtot 92.973171
 2782         c3     93    bbb     C8   2782 -0.06455200  12.010000   ; qtot 92.908619
 2783         h1     93    bbb    H15   2783 0.13554100   1.008000   ; qtot 93.044160
 2784         h1     93    bbb    H16   2784 0.13554100   1.008000   ; qtot 93.179701
 2785         c3     93    bbb     C9   2785 -0.06455200  12.010000   ; qtot 93.115149
 2786         h1     93    bbb    H17   2786 0.13554100   1.008000   ; qtot 93.250690
 2787         h1     93    bbb    H18   2787 0.13554100   1.008000   ; qtot 93.386231
 2788         os     93    bbb     O1   2788 -0.62587700  16.000000   ; qtot 92.760354
 2789         hn     93    bbb    H19   2789 0.23982500   1.008000   ; qtot 93.000179
; residue   94 bbb rtp bbb q 1.0
 2790         n4     94    bbb     N1   2790 0.03726400  14.010000   ; qtot 93.037443
 2791         c3     94    bbb     C1   2791 -0.07020100  12.010000   ; qtot 92.967242
 2792         hx     94    bbb     H1   2792 0.12219000   1.008000   ; qtot 93.089432
 2793         hx     94    bbb     H2   2793 0.12219000   1.008000   ; qtot 93.211622
 2794         c3     94    bbb     C2   2794 -0.07020100  12.010000   ; qtot 93.141421
 2795         hx     94    bbb     H3   2795 0.12219000   1.008000   ; qtot 93.263611
 2796         hx     94    bbb     H4   2796 0.12219000   1.008000   ; qtot 93.385801
 2797         c3     94    bbb     C3   2797 -0.39007700  12.010000   ; qtot 92.995724
 2798         hx     94    bbb     H5   2798 0.14940300   1.008000   ; qtot 93.145127
 2799         hx     94    bbb     H6   2799 0.14940300   1.008000   ; qtot 93.294530
 2800         c3     94    bbb     C4   2800 0.18057300  12.010000   ; qtot 93.475103
 2801         hc     94    bbb     H7   2801 0.01788900   1.008000   ; qtot 93.492992
 2802         hc     94    bbb     H8   2802 0.01788900   1.008000   ; qtot 93.510881
 2803         c3     94    bbb     C5   2803 -0.11337700  12.010000   ; qtot 93.397504
 2804         hc     94    bbb     H9   2804 0.09515400   1.008000   ; qtot 93.492658
 2805         hc     94    bbb    H10   2805 0.09515400   1.008000   ; qtot 93.587812
 2806         c3     94    bbb     C6   2806 -0.11337700  12.010000   ; qtot 93.474435
 2807         hc     94    bbb    H11   2807 0.09515400   1.008000   ; qtot 93.569589
 2808         hc     94    bbb    H12   2808 0.09515400   1.008000   ; qtot 93.664743
 2809         c3     94    bbb     C7   2809 0.21842400  12.010000   ; qtot 93.883167
 2810         h1     94    bbb    H13   2810 0.04500300   1.008000   ; qtot 93.928170
 2811         h1     94    bbb    H14   2811 0.04500300   1.008000   ; qtot 93.973173
 2812         c3     94    bbb     C8   2812 -0.06455200  12.010000   ; qtot 93.908621
 2813         h1     94    bbb    H15   2813 0.13554100   1.008000   ; qtot 94.044162
 2814         h1     94    bbb    H16   2814 0.13554100   1.008000   ; qtot 94.179703
 2815         c3     94    bbb     C9   2815 -0.06455200  12.010000   ; qtot 94.115151
 2816         h1     94    bbb    H17   2816 0.13554100   1.008000   ; qtot 94.250692
 2817         h1     94    bbb    H18   2817 0.13554100   1.008000   ; qtot 94.386233
 2818         os     94    bbb     O1   2818 -0.62587700  16.000000   ; qtot 93.760356
 2819         hn     94    bbb    H19   2819 0.23982500   1.008000   ; qtot 94.000181
; residue   95 ccc rtp ccc q 1.0
 2820         c3     95    ccc     C1   2820 0.17060900  12.010000   ; qtot 94.170790
 2821         hx     95    ccc     H1   2821 0.04213200   1.008000   ; qtot 94.212922
 2822         hx     95    ccc     H2   2822 0.04213200   1.008000   ; qtot 94.255054
 2823         c3     95    ccc     C2   2823 -0.04496700  12.010000   ; qtot 94.210087
 2824         hc     95    ccc     H3   2824 0.02647500   1.008000   ; qtot 94.236562
 2825         hc     95    ccc     H4   2825 0.02647500   1.008000   ; qtot 94.263037
 2826         c3     95    ccc     C3   2826 0.04732600  12.010000   ; qtot 94.310363
 2827         h1     95    ccc     H5   2827 0.07030200   1.008000   ; qtot 94.380665
 2828         h1     95    ccc     H6   2828 0.07030200   1.008000   ; qtot 94.450967
 2829         n4     95    ccc     N1   2829 -0.21077700  14.010000   ; qtot 94.240190
 2830         hn     95    ccc     H7   2830 0.28399900   1.008000   ; qtot 94.524189
 2831         hn     95    ccc     H8   2831 0.28399900   1.008000   ; qtot 94.808188
 2832         os     95    ccc     O1   2832 -0.09200600  16.000000   ; qtot 94.716182
 2833         hn     95    ccc    H17   2833 0.28399900   1.008000   ; qtot 95.000181
; residue   96 ccc rtp ccc q 1.0
 2834         c3     96    ccc     C1   2834 0.17060900  12.010000   ; qtot 95.170790
 2835         hx     96    ccc     H1   2835 0.04213200   1.008000   ; qtot 95.212922
 2836         hx     96    ccc     H2   2836 0.04213200   1.008000   ; qtot 95.255054
 2837         c3     96    ccc     C2   2837 -0.04496700  12.010000   ; qtot 95.210087
 2838         hc     96    ccc     H3   2838 0.02647500   1.008000   ; qtot 95.236562
 2839         hc     96    ccc     H4   2839 0.02647500   1.008000   ; qtot 95.263037
 2840         c3     96    ccc     C3   2840 0.04732600  12.010000   ; qtot 95.310363
 2841         h1     96    ccc     H5   2841 0.07030200   1.008000   ; qtot 95.380665
 2842         h1     96    ccc     H6   2842 0.07030200   1.008000   ; qtot 95.450967
 2843         n4     96    ccc     N1   2843 -0.21077700  14.010000   ; qtot 95.240190
 2844         hn     96    ccc     H7   2844 0.28399900   1.008000   ; qtot 95.524189
 2845         hn     96    ccc     H8   2845 0.28399900   1.008000   ; qtot 95.808188
 2846         os     96    ccc     O1   2846 -0.09200600  16.000000   ; qtot 95.716182
 2847         hn     96    ccc    H17   2847 0.28399900   1.008000   ; qtot 96.000181
; residue   97 ccc rtp ccc q 1.0
 2848         c3     97    ccc     C1   2848 0.17060900  12.010000   ; qtot 96.170790
 2849         hx     97    ccc     H1   2849 0.04213200   1.008000   ; qtot 96.212922
 2850         hx     97    ccc     H2   2850 0.04213200   1.008000   ; qtot 96.255054
 2851         c3     97    ccc     C2   2851 -0.04496700  12.010000   ; qtot 96.210087
 2852         hc     97    ccc     H3   2852 0.02647500   1.008000   ; qtot 96.236562
 2853         hc     97    ccc     H4   2853 0.02647500   1.008000   ; qtot 96.263037
 2854         c3     97    ccc     C3   2854 0.04732600  12.010000   ; qtot 96.310363
 2855         h1     97    ccc     H5   2855 0.07030200   1.008000   ; qtot 96.380665
 2856         h1     97    ccc     H6   2856 0.07030200   1.008000   ; qtot 96.450967
 2857         n4     97    ccc     N1   2857 -0.21077700  14.010000   ; qtot 96.240190
 2858         hn     97    ccc     H7   2858 0.28399900   1.008000   ; qtot 96.524189
 2859         hn     97    ccc     H8   2859 0.28399900   1.008000   ; qtot 96.808188
 2860         os     97    ccc     O1   2860 -0.09200600  16.000000   ; qtot 96.716182
 2861         hn     97    ccc    H17   2861 0.28399900   1.008000   ; qtot 97.000181
; residue   98 ccc rtp ccc q 1.0
 2862         c3     98    ccc     C1   2862 0.17060900  12.010000   ; qtot 97.170790
 2863         hx     98    ccc     H1   2863 0.04213200   1.008000   ; qtot 97.212922
 2864         hx     98    ccc     H2   2864 0.04213200   1.008000   ; qtot 97.255054
 2865         c3     98    ccc     C2   2865 -0.04496700  12.010000   ; qtot 97.210087
 2866         hc     98    ccc     H3   2866 0.02647500   1.008000   ; qtot 97.236562
 2867         hc     98    ccc     H4   2867 0.02647500   1.008000   ; qtot 97.263037
 2868         c3     98    ccc     C3   2868 0.04732600  12.010000   ; qtot 97.310363
 2869         h1     98    ccc     H5   2869 0.07030200   1.008000   ; qtot 97.380665
 2870         h1     98    ccc     H6   2870 0.07030200   1.008000   ; qtot 97.450967
 2871         n4     98    ccc     N1   2871 -0.21077700  14.010000   ; qtot 97.240190
 2872         hn     98    ccc     H7   2872 0.28399900   1.008000   ; qtot 97.524189
 2873         hn     98    ccc     H8   2873 0.28399900   1.008000   ; qtot 97.808188
 2874         os     98    ccc     O1   2874 -0.09200600  16.000000   ; qtot 97.716182
 2875         hn     98    ccc    H17   2875 0.28399900   1.008000   ; qtot 98.000181
; residue   99 ccc rtp ccc q 1.0
 2876         c3     99    ccc     C1   2876 0.17060900  12.010000   ; qtot 98.170790
 2877         hx     99    ccc     H1   2877 0.04213200   1.008000   ; qtot 98.212922
 2878         hx     99    ccc     H2   2878 0.04213200   1.008000   ; qtot 98.255054
 2879         c3     99    ccc     C2   2879 -0.04496700  12.010000   ; qtot 98.210087
 2880         hc     99    ccc     H3   2880 0.02647500   1.008000   ; qtot 98.236562
 2881         hc     99    ccc     H4   2881 0.02647500   1.008000   ; qtot 98.263037
 2882         c3     99    ccc     C3   2882 0.04732600  12.010000   ; qtot 98.310363
 2883         h1     99    ccc     H5   2883 0.07030200   1.008000   ; qtot 98.380665
 2884         h1     99    ccc     H6   2884 0.07030200   1.008000   ; qtot 98.450967
 2885         n4     99    ccc     N1   2885 -0.21077700  14.010000   ; qtot 98.240190
 2886         hn     99    ccc     H7   2886 0.28399900   1.008000   ; qtot 98.524189
 2887         hn     99    ccc     H8   2887 0.28399900   1.008000   ; qtot 98.808188
 2888         os     99    ccc     O1   2888 -0.09200600  16.000000   ; qtot 98.716182
 2889         hn     99    ccc    H17   2889 0.28399900   1.008000   ; qtot 99.000181
; residue  100 ccc rtp ccc q 1.0
 2890         c3    100    ccc     C1   2890 0.17060900  12.010000   ; qtot 99.170790
 2891         hx    100    ccc     H1   2891 0.04213200   1.008000   ; qtot 99.212922
 2892         hx    100    ccc     H2   2892 0.04213200   1.008000   ; qtot 99.255054
 2893         c3    100    ccc     C2   2893 -0.04496700  12.010000   ; qtot 99.210087
 2894         hc    100    ccc     H3   2894 0.02647500   1.008000   ; qtot 99.236562
 2895         hc    100    ccc     H4   2895 0.02647500   1.008000   ; qtot 99.263037
 2896         c3    100    ccc     C3   2896 0.04732600  12.010000   ; qtot 99.310363
 2897         h1    100    ccc     H5   2897 0.07030200   1.008000   ; qtot 99.380665
 2898         h1    100    ccc     H6   2898 0.07030200   1.008000   ; qtot 99.450967
 2899         n4    100    ccc     N1   2899 -0.21077700  14.010000   ; qtot 99.240190
 2900         hn    100    ccc     H7   2900 0.28399900   1.008000   ; qtot 99.524189
 2901         hn    100    ccc     H8   2901 0.28399900   1.008000   ; qtot 99.808188
 2902         os    100    ccc     O1   2902 -0.09200600  16.000000   ; qtot 99.716182
 2903         hn    100    ccc    H17   2903 0.28399900   1.008000   ; qtot 100.000181
; residue  101 ccc rtp ccc q 1.0
 2904         c3    101    ccc     C1   2904 0.17060900  12.010000   ; qtot 100.170790
 2905         hx    101    ccc     H1   2905 0.04213200   1.008000   ; qtot 100.212922
 2906         hx    101    ccc     H2   2906 0.04213200   1.008000   ; qtot 100.255054
 2907         c3    101    ccc     C2   2907 -0.04496700  12.010000   ; qtot 100.210087
 2908         hc    101    ccc     H3   2908 0.02647500   1.008000   ; qtot 100.236562
 2909         hc    101    ccc     H4   2909 0.02647500   1.008000   ; qtot 100.263037
 2910         c3    101    ccc     C3   2910 0.04732600  12.010000   ; qtot 100.310363
 2911         h1    101    ccc     H5   2911 0.07030200   1.008000   ; qtot 100.380665
 2912         h1    101    ccc     H6   2912 0.07030200   1.008000   ; qtot 100.450967
 2913         n4    101    ccc     N1   2913 -0.21077700  14.010000   ; qtot 100.240190
 2914         hn    101    ccc     H7   2914 0.28399900   1.008000   ; qtot 100.524189
 2915         hn    101    ccc     H8   2915 0.28399900   1.008000   ; qtot 100.808188
 2916         os    101    ccc     O1   2916 -0.09200600  16.000000   ; qtot 100.716182
 2917         hn    101    ccc    H17   2917 0.28399900   1.008000   ; qtot 101.000181
; residue  102 ccc rtp ccc q 1.0
 2918         c3    102    ccc     C1   2918 0.17060900  12.010000   ; qtot 101.170790
 2919         hx    102    ccc     H1   2919 0.04213200   1.008000   ; qtot 101.212922
 2920         hx    102    ccc     H2   2920 0.04213200   1.008000   ; qtot 101.255054
 2921         c3    102    ccc     C2   2921 -0.04496700  12.010000   ; qtot 101.210087
 2922         hc    102    ccc     H3   2922 0.02647500   1.008000   ; qtot 101.236562
 2923         hc    102    ccc     H4   2923 0.02647500   1.008000   ; qtot 101.263037
 2924         c3    102    ccc     C3   2924 0.04732600  12.010000   ; qtot 101.310363
 2925         h1    102    ccc     H5   2925 0.07030200   1.008000   ; qtot 101.380665
 2926         h1    102    ccc     H6   2926 0.07030200   1.008000   ; qtot 101.450967
 2927         n4    102    ccc     N1   2927 -0.21077700  14.010000   ; qtot 101.240190
 2928         hn    102    ccc     H7   2928 0.28399900   1.008000   ; qtot 101.524189
 2929         hn    102    ccc     H8   2929 0.28399900   1.008000   ; qtot 101.808188
 2930         os    102    ccc     O1   2930 -0.09200600  16.000000   ; qtot 101.716182
 2931         hn    102    ccc    H17   2931 0.28399900   1.008000   ; qtot 102.000181
; residue  103 ccc rtp ccc q 1.0
 2932         c3    103    ccc     C1   2932 0.17060900  12.010000   ; qtot 102.170790
 2933         hx    103    ccc     H1   2933 0.04213200   1.008000   ; qtot 102.212922
 2934         hx    103    ccc     H2   2934 0.04213200   1.008000   ; qtot 102.255054
 2935         c3    103    ccc     C2   2935 -0.04496700  12.010000   ; qtot 102.210087
 2936         hc    103    ccc     H3   2936 0.02647500   1.008000   ; qtot 102.236562
 2937         hc    103    ccc     H4   2937 0.02647500   1.008000   ; qtot 102.263037
 2938         c3    103    ccc     C3   2938 0.04732600  12.010000   ; qtot 102.310363
 2939         h1    103    ccc     H5   2939 0.07030200   1.008000   ; qtot 102.380665
 2940         h1    103    ccc     H6   2940 0.07030200   1.008000   ; qtot 102.450967
 2941         n4    103    ccc     N1   2941 -0.21077700  14.010000   ; qtot 102.240190
 2942         hn    103    ccc     H7   2942 0.28399900   1.008000   ; qtot 102.524189
 2943         hn    103    ccc     H8   2943 0.28399900   1.008000   ; qtot 102.808188
 2944         os    103    ccc     O1   2944 -0.09200600  16.000000   ; qtot 102.716182
 2945         hn    103    ccc    H17   2945 0.28399900   1.008000   ; qtot 103.000181
; residue  104 ccc rtp ccc q 1.0
 2946         c3    104    ccc     C1   2946 0.17060900  12.010000   ; qtot 103.170790
 2947         hx    104    ccc     H1   2947 0.04213200   1.008000   ; qtot 103.212922
 2948         hx    104    ccc     H2   2948 0.04213200   1.008000   ; qtot 103.255054
 2949         c3    104    ccc     C2   2949 -0.04496700  12.010000   ; qtot 103.210087
 2950         hc    104    ccc     H3   2950 0.02647500   1.008000   ; qtot 103.236562
 2951         hc    104    ccc     H4   2951 0.02647500   1.008000   ; qtot 103.263037
 2952         c3    104    ccc     C3   2952 0.04732600  12.010000   ; qtot 103.310363
 2953         h1    104    ccc     H5   2953 0.07030200   1.008000   ; qtot 103.380665
 2954         h1    104    ccc     H6   2954 0.07030200   1.008000   ; qtot 103.450967
 2955         n4    104    ccc     N1   2955 -0.21077700  14.010000   ; qtot 103.240190
 2956         hn    104    ccc     H7   2956 0.28399900   1.008000   ; qtot 103.524189
 2957         hn    104    ccc     H8   2957 0.28399900   1.008000   ; qtot 103.808188
 2958         os    104    ccc     O1   2958 -0.09200600  16.000000   ; qtot 103.716182
 2959         hn    104    ccc    H17   2959 0.28399900   1.008000   ; qtot 104.000181
; residue  105 ccc rtp ccc q 1.0
 2960         c3    105    ccc     C1   2960 0.17060900  12.010000   ; qtot 104.170790
 2961         hx    105    ccc     H1   2961 0.04213200   1.008000   ; qtot 104.212922
 2962         hx    105    ccc     H2   2962 0.04213200   1.008000   ; qtot 104.255054
 2963         c3    105    ccc     C2   2963 -0.04496700  12.010000   ; qtot 104.210087
 2964         hc    105    ccc     H3   2964 0.02647500   1.008000   ; qtot 104.236562
 2965         hc    105    ccc     H4   2965 0.02647500   1.008000   ; qtot 104.263037
 2966         c3    105    ccc     C3   2966 0.04732600  12.010000   ; qtot 104.310363
 2967         h1    105    ccc     H5   2967 0.07030200   1.008000   ; qtot 104.380665
 2968         h1    105    ccc     H6   2968 0.07030200   1.008000   ; qtot 104.450967
 2969         n4    105    ccc     N1   2969 -0.21077700  14.010000   ; qtot 104.240190
 2970         hn    105    ccc     H7   2970 0.28399900   1.008000   ; qtot 104.524189
 2971         hn    105    ccc     H8   2971 0.28399900   1.008000   ; qtot 104.808188
 2972         os    105    ccc     O1   2972 -0.09200600  16.000000   ; qtot 104.716182
 2973         hn    105    ccc    H17   2973 0.28399900   1.008000   ; qtot 105.000181
; residue  106 ccc rtp ccc q 1.0
 2974         c3    106    ccc     C1   2974 0.17060900  12.010000   ; qtot 105.170790
 2975         hx    106    ccc     H1   2975 0.04213200   1.008000   ; qtot 105.212922
 2976         hx    106    ccc     H2   2976 0.04213200   1.008000   ; qtot 105.255054
 2977         c3    106    ccc     C2   2977 -0.04496700  12.010000   ; qtot 105.210087
 2978         hc    106    ccc     H3   2978 0.02647500   1.008000   ; qtot 105.236562
 2979         hc    106    ccc     H4   2979 0.02647500   1.008000   ; qtot 105.263037
 2980         c3    106    ccc     C3   2980 0.04732600  12.010000   ; qtot 105.310363
 2981         h1    106    ccc     H5   2981 0.07030200   1.008000   ; qtot 105.380665
 2982         h1    106    ccc     H6   2982 0.07030200   1.008000   ; qtot 105.450967
 2983         n4    106    ccc     N1   2983 -0.21077700  14.010000   ; qtot 105.240190
 2984         hn    106    ccc     H7   2984 0.28399900   1.008000   ; qtot 105.524189
 2985         hn    106    ccc     H8   2985 0.28399900   1.008000   ; qtot 105.808188
 2986         os    106    ccc     O1   2986 -0.09200600  16.000000   ; qtot 105.716182
 2987         hn    106    ccc    H17   2987 0.28399900   1.008000   ; qtot 106.000181
; residue  107 ccc rtp ccc q 1.0
 2988         c3    107    ccc     C1   2988 0.17060900  12.010000   ; qtot 106.170790
 2989         hx    107    ccc     H1   2989 0.04213200   1.008000   ; qtot 106.212922
 2990         hx    107    ccc     H2   2990 0.04213200   1.008000   ; qtot 106.255054
 2991         c3    107    ccc     C2   2991 -0.04496700  12.010000   ; qtot 106.210087
 2992         hc    107    ccc     H3   2992 0.02647500   1.008000   ; qtot 106.236562
 2993         hc    107    ccc     H4   2993 0.02647500   1.008000   ; qtot 106.263037
 2994         c3    107    ccc     C3   2994 0.04732600  12.010000   ; qtot 106.310363
 2995         h1    107    ccc     H5   2995 0.07030200   1.008000   ; qtot 106.380665
 2996         h1    107    ccc     H6   2996 0.07030200   1.008000   ; qtot 106.450967
 2997         n4    107    ccc     N1   2997 -0.21077700  14.010000   ; qtot 106.240190
 2998         hn    107    ccc     H7   2998 0.28399900   1.008000   ; qtot 106.524189
 2999         hn    107    ccc     H8   2999 0.28399900   1.008000   ; qtot 106.808188
 3000         os    107    ccc     O1   3000 -0.09200600  16.000000   ; qtot 106.716182
 3001         hn    107    ccc    H17   3001 0.28399900   1.008000   ; qtot 107.000181
; residue  108 ccc rtp ccc q 1.0
 3002         c3    108    ccc     C1   3002 0.17060900  12.010000   ; qtot 107.170790
 3003         hx    108    ccc     H1   3003 0.04213200   1.008000   ; qtot 107.212922
 3004         hx    108    ccc     H2   3004 0.04213200   1.008000   ; qtot 107.255054
 3005         c3    108    ccc     C2   3005 -0.04496700  12.010000   ; qtot 107.210087
 3006         hc    108    ccc     H3   3006 0.02647500   1.008000   ; qtot 107.236562
 3007         hc    108    ccc     H4   3007 0.02647500   1.008000   ; qtot 107.263037
 3008         c3    108    ccc     C3   3008 0.04732600  12.010000   ; qtot 107.310363
 3009         h1    108    ccc     H5   3009 0.07030200   1.008000   ; qtot 107.380665
 3010         h1    108    ccc     H6   3010 0.07030200   1.008000   ; qtot 107.450967
 3011         n4    108    ccc     N1   3011 -0.21077700  14.010000   ; qtot 107.240190
 3012         hn    108    ccc     H7   3012 0.28399900   1.008000   ; qtot 107.524189
 3013         hn    108    ccc     H8   3013 0.28399900   1.008000   ; qtot 107.808188
 3014         os    108    ccc     O1   3014 -0.09200600  16.000000   ; qtot 107.716182
 3015         hn    108    ccc    H17   3015 0.28399900   1.008000   ; qtot 108.000181
; residue  109 ccc rtp ccc q 1.0
 3016         c3    109    ccc     C1   3016 0.17060900  12.010000   ; qtot 108.170790
 3017         hx    109    ccc     H1   3017 0.04213200   1.008000   ; qtot 108.212922
 3018         hx    109    ccc     H2   3018 0.04213200   1.008000   ; qtot 108.255054
 3019         c3    109    ccc     C2   3019 -0.04496700  12.010000   ; qtot 108.210087
 3020         hc    109    ccc     H3   3020 0.02647500   1.008000   ; qtot 108.236562
 3021         hc    109    ccc     H4   3021 0.02647500   1.008000   ; qtot 108.263037
 3022         c3    109    ccc     C3   3022 0.04732600  12.010000   ; qtot 108.310363
 3023         h1    109    ccc     H5   3023 0.07030200   1.008000   ; qtot 108.380665
 3024         h1    109    ccc     H6   3024 0.07030200   1.008000   ; qtot 108.450967
 3025         n4    109    ccc     N1   3025 -0.21077700  14.010000   ; qtot 108.240190
 3026         hn    109    ccc     H7   3026 0.28399900   1.008000   ; qtot 108.524189
 3027         hn    109    ccc     H8   3027 0.28399900   1.008000   ; qtot 108.808188
 3028         os    109    ccc     O1   3028 -0.09200600  16.000000   ; qtot 108.716182
 3029         hn    109    ccc    H17   3029 0.28399900   1.008000   ; qtot 109.000181
; residue  110 ccc rtp ccc q 1.0
 3030         c3    110    ccc     C1   3030 0.17060900  12.010000   ; qtot 109.170790
 3031         hx    110    ccc     H1   3031 0.04213200   1.008000   ; qtot 109.212922
 3032         hx    110    ccc     H2   3032 0.04213200   1.008000   ; qtot 109.255054
 3033         c3    110    ccc     C2   3033 -0.04496700  12.010000   ; qtot 109.210087
 3034         hc    110    ccc     H3   3034 0.02647500   1.008000   ; qtot 109.236562
 3035         hc    110    ccc     H4   3035 0.02647500   1.008000   ; qtot 109.263037
 3036         c3    110    ccc     C3   3036 0.04732600  12.010000   ; qtot 109.310363
 3037         h1    110    ccc     H5   3037 0.07030200   1.008000   ; qtot 109.380665
 3038         h1    110    ccc     H6   3038 0.07030200   1.008000   ; qtot 109.450967
 3039         n4    110    ccc     N1   3039 -0.21077700  14.010000   ; qtot 109.240190
 3040         hn    110    ccc     H7   3040 0.28399900   1.008000   ; qtot 109.524189
 3041         hn    110    ccc     H8   3041 0.28399900   1.008000   ; qtot 109.808188
 3042         os    110    ccc     O1   3042 -0.09200600  16.000000   ; qtot 109.716182
 3043         hn    110    ccc    H17   3043 0.28399900   1.008000   ; qtot 110.000181
; residue  111 ccc rtp ccc q 1.0
 3044         c3    111    ccc     C1   3044 0.17060900  12.010000   ; qtot 110.170790
 3045         hx    111    ccc     H1   3045 0.04213200   1.008000   ; qtot 110.212922
 3046         hx    111    ccc     H2   3046 0.04213200   1.008000   ; qtot 110.255054
 3047         c3    111    ccc     C2   3047 -0.04496700  12.010000   ; qtot 110.210087
 3048         hc    111    ccc     H3   3048 0.02647500   1.008000   ; qtot 110.236562
 3049         hc    111    ccc     H4   3049 0.02647500   1.008000   ; qtot 110.263037
 3050         c3    111    ccc     C3   3050 0.04732600  12.010000   ; qtot 110.310363
 3051         h1    111    ccc     H5   3051 0.07030200   1.008000   ; qtot 110.380665
 3052         h1    111    ccc     H6   3052 0.07030200   1.008000   ; qtot 110.450967
 3053         n4    111    ccc     N1   3053 -0.21077700  14.010000   ; qtot 110.240190
 3054         hn    111    ccc     H7   3054 0.28399900   1.008000   ; qtot 110.524189
 3055         hn    111    ccc     H8   3055 0.28399900   1.008000   ; qtot 110.808188
 3056         os    111    ccc     O1   3056 -0.09200600  16.000000   ; qtot 110.716182
 3057         hn    111    ccc    H17   3057 0.28399900   1.008000   ; qtot 111.000181
; residue  112 ccc rtp ccc q 1.0
 3058         c3    112    ccc     C1   3058 0.17060900  12.010000   ; qtot 111.170790
 3059         hx    112    ccc     H1   3059 0.04213200   1.008000   ; qtot 111.212922
 3060         hx    112    ccc     H2   3060 0.04213200   1.008000   ; qtot 111.255054
 3061         c3    112    ccc     C2   3061 -0.04496700  12.010000   ; qtot 111.210087
 3062         hc    112    ccc     H3   3062 0.02647500   1.008000   ; qtot 111.236562
 3063         hc    112    ccc     H4   3063 0.02647500   1.008000   ; qtot 111.263037
 3064         c3    112    ccc     C3   3064 0.04732600  12.010000   ; qtot 111.310363
 3065         h1    112    ccc     H5   3065 0.07030200   1.008000   ; qtot 111.380665
 3066         h1    112    ccc     H6   3066 0.07030200   1.008000   ; qtot 111.450967
 3067         n4    112    ccc     N1   3067 -0.21077700  14.010000   ; qtot 111.240190
 3068         hn    112    ccc     H7   3068 0.28399900   1.008000   ; qtot 111.524189
 3069         hn    112    ccc     H8   3069 0.28399900   1.008000   ; qtot 111.808188
 3070         os    112    ccc     O1   3070 -0.09200600  16.000000   ; qtot 111.716182
 3071         hn    112    ccc    H17   3071 0.28399900   1.008000   ; qtot 112.000181
; residue  113 ccc rtp ccc q 1.0
 3072         c3    113    ccc     C1   3072 0.17060900  12.010000   ; qtot 112.170790
 3073         hx    113    ccc     H1   3073 0.04213200   1.008000   ; qtot 112.212922
 3074         hx    113    ccc     H2   3074 0.04213200   1.008000   ; qtot 112.255054
 3075         c3    113    ccc     C2   3075 -0.04496700  12.010000   ; qtot 112.210087
 3076         hc    113    ccc     H3   3076 0.02647500   1.008000   ; qtot 112.236562
 3077         hc    113    ccc     H4   3077 0.02647500   1.008000   ; qtot 112.263037
 3078         c3    113    ccc     C3   3078 0.04732600  12.010000   ; qtot 112.310363
 3079         h1    113    ccc     H5   3079 0.07030200   1.008000   ; qtot 112.380665
 3080         h1    113    ccc     H6   3080 0.07030200   1.008000   ; qtot 112.450967
 3081         n4    113    ccc     N1   3081 -0.21077700  14.010000   ; qtot 112.240190
 3082         hn    113    ccc     H7   3082 0.28399900   1.008000   ; qtot 112.524189
 3083         hn    113    ccc     H8   3083 0.28399900   1.008000   ; qtot 112.808188
 3084         os    113    ccc     O1   3084 -0.09200600  16.000000   ; qtot 112.716182
 3085         hn    113    ccc    H17   3085 0.28399900   1.008000   ; qtot 113.000181
; residue  114 ccc rtp ccc q 1.0
 3086         c3    114    ccc     C1   3086 0.17060900  12.010000   ; qtot 113.170790
 3087         hx    114    ccc     H1   3087 0.04213200   1.008000   ; qtot 113.212922
 3088         hx    114    ccc     H2   3088 0.04213200   1.008000   ; qtot 113.255054
 3089         c3    114    ccc     C2   3089 -0.04496700  12.010000   ; qtot 113.210087
 3090         hc    114    ccc     H3   3090 0.02647500   1.008000   ; qtot 113.236562
 3091         hc    114    ccc     H4   3091 0.02647500   1.008000   ; qtot 113.263037
 3092         c3    114    ccc     C3   3092 0.04732600  12.010000   ; qtot 113.310363
 3093         h1    114    ccc     H5   3093 0.07030200   1.008000   ; qtot 113.380665
 3094         h1    114    ccc     H6   3094 0.07030200   1.008000   ; qtot 113.450967
 3095         n4    114    ccc     N1   3095 -0.21077700  14.010000   ; qtot 113.240190
 3096         hn    114    ccc     H7   3096 0.28399900   1.008000   ; qtot 113.524189
 3097         hn    114    ccc     H8   3097 0.28399900   1.008000   ; qtot 113.808188
 3098         os    114    ccc     O1   3098 -0.09200600  16.000000   ; qtot 113.716182
 3099         hn    114    ccc    H17   3099 0.28399900   1.008000   ; qtot 114.000181
; residue  115 ccc rtp ccc q 1.0
 3100         c3    115    ccc     C1   3100 0.17060900  12.010000   ; qtot 114.170790
 3101         hx    115    ccc     H1   3101 0.04213200   1.008000   ; qtot 114.212922
 3102         hx    115    ccc     H2   3102 0.04213200   1.008000   ; qtot 114.255054
 3103         c3    115    ccc     C2   3103 -0.04496700  12.010000   ; qtot 114.210087
 3104         hc    115    ccc     H3   3104 0.02647500   1.008000   ; qtot 114.236562
 3105         hc    115    ccc     H4   3105 0.02647500   1.008000   ; qtot 114.263037
 3106         c3    115    ccc     C3   3106 0.04732600  12.010000   ; qtot 114.310363
 3107         h1    115    ccc     H5   3107 0.07030200   1.008000   ; qtot 114.380665
 3108         h1    115    ccc     H6   3108 0.07030200   1.008000   ; qtot 114.450967
 3109         n4    115    ccc     N1   3109 -0.21077700  14.010000   ; qtot 114.240190
 3110         hn    115    ccc     H7   3110 0.28399900   1.008000   ; qtot 114.524189
 3111         hn    115    ccc     H8   3111 0.28399900   1.008000   ; qtot 114.808188
 3112         os    115    ccc     O1   3112 -0.09200600  16.000000   ; qtot 114.716182
 3113         hn    115    ccc    H17   3113 0.28399900   1.008000   ; qtot 115.000181
; residue  116 ccc rtp ccc q 1.0
 3114         c3    116    ccc     C1   3114 0.17060900  12.010000   ; qtot 115.170790
 3115         hx    116    ccc     H1   3115 0.04213200   1.008000   ; qtot 115.212922
 3116         hx    116    ccc     H2   3116 0.04213200   1.008000   ; qtot 115.255054
 3117         c3    116    ccc     C2   3117 -0.04496700  12.010000   ; qtot 115.210087
 3118         hc    116    ccc     H3   3118 0.02647500   1.008000   ; qtot 115.236562
 3119         hc    116    ccc     H4   3119 0.02647500   1.008000   ; qtot 115.263037
 3120         c3    116    ccc     C3   3120 0.04732600  12.010000   ; qtot 115.310363
 3121         h1    116    ccc     H5   3121 0.07030200   1.008000   ; qtot 115.380665
 3122         h1    116    ccc     H6   3122 0.07030200   1.008000   ; qtot 115.450967
 3123         n4    116    ccc     N1   3123 -0.21077700  14.010000   ; qtot 115.240190
 3124         hn    116    ccc     H7   3124 0.28399900   1.008000   ; qtot 115.524189
 3125         hn    116    ccc     H8   3125 0.28399900   1.008000   ; qtot 115.808188
 3126         os    116    ccc     O1   3126 -0.09200600  16.000000   ; qtot 115.716182
 3127         hn    116    ccc    H17   3127 0.28399900   1.008000   ; qtot 116.000181
; residue  117 ccc rtp ccc q 1.0
 3128         c3    117    ccc     C1   3128 0.17060900  12.010000   ; qtot 116.170790
 3129         hx    117    ccc     H1   3129 0.04213200   1.008000   ; qtot 116.212922
 3130         hx    117    ccc     H2   3130 0.04213200   1.008000   ; qtot 116.255054
 3131         c3    117    ccc     C2   3131 -0.04496700  12.010000   ; qtot 116.210087
 3132         hc    117    ccc     H3   3132 0.02647500   1.008000   ; qtot 116.236562
 3133         hc    117    ccc     H4   3133 0.02647500   1.008000   ; qtot 116.263037
 3134         c3    117    ccc     C3   3134 0.04732600  12.010000   ; qtot 116.310363
 3135         h1    117    ccc     H5   3135 0.07030200   1.008000   ; qtot 116.380665
 3136         h1    117    ccc     H6   3136 0.07030200   1.008000   ; qtot 116.450967
 3137         n4    117    ccc     N1   3137 -0.21077700  14.010000   ; qtot 116.240190
 3138         hn    117    ccc     H7   3138 0.28399900   1.008000   ; qtot 116.524189
 3139         hn    117    ccc     H8   3139 0.28399900   1.008000   ; qtot 116.808188
 3140         os    117    ccc     O1   3140 -0.09200600  16.000000   ; qtot 116.716182
 3141         hn    117    ccc    H17   3141 0.28399900   1.008000   ; qtot 117.000181
; residue  118 ccc rtp ccc q 1.0
 3142         c3    118    ccc     C1   3142 0.17060900  12.010000   ; qtot 117.170790
 3143         hx    118    ccc     H1   3143 0.04213200   1.008000   ; qtot 117.212922
 3144         hx    118    ccc     H2   3144 0.04213200   1.008000   ; qtot 117.255054
 3145         c3    118    ccc     C2   3145 -0.04496700  12.010000   ; qtot 117.210087
 3146         hc    118    ccc     H3   3146 0.02647500   1.008000   ; qtot 117.236562
 3147         hc    118    ccc     H4   3147 0.02647500   1.008000   ; qtot 117.263037
 3148         c3    118    ccc     C3   3148 0.04732600  12.010000   ; qtot 117.310363
 3149         h1    118    ccc     H5   3149 0.07030200   1.008000   ; qtot 117.380665
 3150         h1    118    ccc     H6   3150 0.07030200   1.008000   ; qtot 117.450967
 3151         n4    118    ccc     N1   3151 -0.21077700  14.010000   ; qtot 117.240190
 3152         hn    118    ccc     H7   3152 0.28399900   1.008000   ; qtot 117.524189
 3153         hn    118    ccc     H8   3153 0.28399900   1.008000   ; qtot 117.808188
 3154         os    118    ccc     O1   3154 -0.09200600  16.000000   ; qtot 117.716182
 3155         hn    118    ccc    H17   3155 0.28399900   1.008000   ; qtot 118.000181
; residue  119 ccc rtp ccc q 1.0
 3156         c3    119    ccc     C1   3156 0.17060900  12.010000   ; qtot 118.170790
 3157         hx    119    ccc     H1   3157 0.04213200   1.008000   ; qtot 118.212922
 3158         hx    119    ccc     H2   3158 0.04213200   1.008000   ; qtot 118.255054
 3159         c3    119    ccc     C2   3159 -0.04496700  12.010000   ; qtot 118.210087
 3160         hc    119    ccc     H3   3160 0.02647500   1.008000   ; qtot 118.236562
 3161         hc    119    ccc     H4   3161 0.02647500   1.008000   ; qtot 118.263037
 3162         c3    119    ccc     C3   3162 0.04732600  12.010000   ; qtot 118.310363
 3163         h1    119    ccc     H5   3163 0.07030200   1.008000   ; qtot 118.380665
 3164         h1    119    ccc     H6   3164 0.07030200   1.008000   ; qtot 118.450967
 3165         n4    119    ccc     N1   3165 -0.21077700  14.010000   ; qtot 118.240190
 3166         hn    119    ccc     H7   3166 0.28399900   1.008000   ; qtot 118.524189
 3167         hn    119    ccc     H8   3167 0.28399900   1.008000   ; qtot 118.808188
 3168         os    119    ccc     O1   3168 -0.09200600  16.000000   ; qtot 118.716182
 3169         hn    119    ccc    H17   3169 0.28399900   1.008000   ; qtot 119.000181
; residue  120 ccc rtp ccc q 1.0
 3170         c3    120    ccc     C1   3170 0.17060900  12.010000   ; qtot 119.170790
 3171         hx    120    ccc     H1   3171 0.04213200   1.008000   ; qtot 119.212922
 3172         hx    120    ccc     H2   3172 0.04213200   1.008000   ; qtot 119.255054
 3173         c3    120    ccc     C2   3173 -0.04496700  12.010000   ; qtot 119.210087
 3174         hc    120    ccc     H3   3174 0.02647500   1.008000   ; qtot 119.236562
 3175         hc    120    ccc     H4   3175 0.02647500   1.008000   ; qtot 119.263037
 3176         c3    120    ccc     C3   3176 0.04732600  12.010000   ; qtot 119.310363
 3177         h1    120    ccc     H5   3177 0.07030200   1.008000   ; qtot 119.380665
 3178         h1    120    ccc     H6   3178 0.07030200   1.008000   ; qtot 119.450967
 3179         n4    120    ccc     N1   3179 -0.21077700  14.010000   ; qtot 119.240190
 3180         hn    120    ccc     H7   3180 0.28399900   1.008000   ; qtot 119.524189
 3181         hn    120    ccc     H8   3181 0.28399900   1.008000   ; qtot 119.808188
 3182         os    120    ccc     O1   3182 -0.09200600  16.000000   ; qtot 119.716182
 3183         hn    120    ccc    H17   3183 0.28399900   1.008000   ; qtot 120.000181
; residue  121 ccc rtp ccc q 1.0
 3184         c3    121    ccc     C1   3184 0.17060900  12.010000   ; qtot 120.170790
 3185         hx    121    ccc     H1   3185 0.04213200   1.008000   ; qtot 120.212922
 3186         hx    121    ccc     H2   3186 0.04213200   1.008000   ; qtot 120.255054
 3187         c3    121    ccc     C2   3187 -0.04496700  12.010000   ; qtot 120.210087
 3188         hc    121    ccc     H3   3188 0.02647500   1.008000   ; qtot 120.236562
 3189         hc    121    ccc     H4   3189 0.02647500   1.008000   ; qtot 120.263037
 3190         c3    121    ccc     C3   3190 0.04732600  12.010000   ; qtot 120.310363
 3191         h1    121    ccc     H5   3191 0.07030200   1.008000   ; qtot 120.380665
 3192         h1    121    ccc     H6   3192 0.07030200   1.008000   ; qtot 120.450967
 3193         n4    121    ccc     N1   3193 -0.21077700  14.010000   ; qtot 120.240190
 3194         hn    121    ccc     H7   3194 0.28399900   1.008000   ; qtot 120.524189
 3195         hn    121    ccc     H8   3195 0.28399900   1.008000   ; qtot 120.808188
 3196         os    121    ccc     O1   3196 -0.09200600  16.000000   ; qtot 120.716182
 3197         hn    121    ccc    H17   3197 0.28399900   1.008000   ; qtot 121.000181
; residue  122 ccc rtp ccc q 1.0
 3198         c3    122    ccc     C1   3198 0.17060900  12.010000   ; qtot 121.170790
 3199         hx    122    ccc     H1   3199 0.04213200   1.008000   ; qtot 121.212922
 3200         hx    122    ccc     H2   3200 0.04213200   1.008000   ; qtot 121.255054
 3201         c3    122    ccc     C2   3201 -0.04496700  12.010000   ; qtot 121.210087
 3202         hc    122    ccc     H3   3202 0.02647500   1.008000   ; qtot 121.236562
 3203         hc    122    ccc     H4   3203 0.02647500   1.008000   ; qtot 121.263037
 3204         c3    122    ccc     C3   3204 0.04732600  12.010000   ; qtot 121.310363
 3205         h1    122    ccc     H5   3205 0.07030200   1.008000   ; qtot 121.380665
 3206         h1    122    ccc     H6   3206 0.07030200   1.008000   ; qtot 121.450967
 3207         n4    122    ccc     N1   3207 -0.21077700  14.010000   ; qtot 121.240190
 3208         hn    122    ccc     H7   3208 0.28399900   1.008000   ; qtot 121.524189
 3209         hn    122    ccc     H8   3209 0.28399900   1.008000   ; qtot 121.808188
 3210         os    122    ccc     O1   3210 -0.09200600  16.000000   ; qtot 121.716182
 3211         hn    122    ccc    H17   3211 0.28399900   1.008000   ; qtot 122.000181
; residue  123 ccc rtp ccc q 1.0
 3212         c3    123    ccc     C1   3212 0.17060900  12.010000   ; qtot 122.170790
 3213         hx    123    ccc     H1   3213 0.04213200   1.008000   ; qtot 122.212922
 3214         hx    123    ccc     H2   3214 0.04213200   1.008000   ; qtot 122.255054
 3215         c3    123    ccc     C2   3215 -0.04496700  12.010000   ; qtot 122.210087
 3216         hc    123    ccc     H3   3216 0.02647500   1.008000   ; qtot 122.236562
 3217         hc    123    ccc     H4   3217 0.02647500   1.008000   ; qtot 122.263037
 3218         c3    123    ccc     C3   3218 0.04732600  12.010000   ; qtot 122.310363
 3219         h1    123    ccc     H5   3219 0.07030200   1.008000   ; qtot 122.380665
 3220         h1    123    ccc     H6   3220 0.07030200   1.008000   ; qtot 122.450967
 3221         n4    123    ccc     N1   3221 -0.21077700  14.010000   ; qtot 122.240190
 3222         hn    123    ccc     H7   3222 0.28399900   1.008000   ; qtot 122.524189
 3223         hn    123    ccc     H8   3223 0.28399900   1.008000   ; qtot 122.808188
 3224         os    123    ccc     O1   3224 -0.09200600  16.000000   ; qtot 122.716182
 3225         hn    123    ccc    H17   3225 0.28399900   1.008000   ; qtot 123.000181
; residue  124 ccc rtp ccc q 1.0
 3226         c3    124    ccc     C1   3226 0.17060900  12.010000   ; qtot 123.170790
 3227         hx    124    ccc     H1   3227 0.04213200   1.008000   ; qtot 123.212922
 3228         hx    124    ccc     H2   3228 0.04213200   1.008000   ; qtot 123.255054
 3229         c3    124    ccc     C2   3229 -0.04496700  12.010000   ; qtot 123.210087
 3230         hc    124    ccc     H3   3230 0.02647500   1.008000   ; qtot 123.236562
 3231         hc    124    ccc     H4   3231 0.02647500   1.008000   ; qtot 123.263037
 3232         c3    124    ccc     C3   3232 0.04732600  12.010000   ; qtot 123.310363
 3233         h1    124    ccc     H5   3233 0.07030200   1.008000   ; qtot 123.380665
 3234         h1    124    ccc     H6   3234 0.07030200   1.008000   ; qtot 123.450967
 3235         n4    124    ccc     N1   3235 -0.21077700  14.010000   ; qtot 123.240190
 3236         hn    124    ccc     H7   3236 0.28399900   1.008000   ; qtot 123.524189
 3237         hn    124    ccc     H8   3237 0.28399900   1.008000   ; qtot 123.808188
 3238         os    124    ccc     O1   3238 -0.09200600  16.000000   ; qtot 123.716182
 3239         hn    124    ccc    H17   3239 0.28399900   1.008000   ; qtot 124.000181
; residue  125 ccc rtp ccc q 1.0
 3240         c3    125    ccc     C1   3240 0.17060900  12.010000   ; qtot 124.170790
 3241         hx    125    ccc     H1   3241 0.04213200   1.008000   ; qtot 124.212922
 3242         hx    125    ccc     H2   3242 0.04213200   1.008000   ; qtot 124.255054
 3243         c3    125    ccc     C2   3243 -0.04496700  12.010000   ; qtot 124.210087
 3244         hc    125    ccc     H3   3244 0.02647500   1.008000   ; qtot 124.236562
 3245         hc    125    ccc     H4   3245 0.02647500   1.008000   ; qtot 124.263037
 3246         c3    125    ccc     C3   3246 0.04732600  12.010000   ; qtot 124.310363
 3247         h1    125    ccc     H5   3247 0.07030200   1.008000   ; qtot 124.380665
 3248         h1    125    ccc     H6   3248 0.07030200   1.008000   ; qtot 124.450967
 3249         n4    125    ccc     N1   3249 -0.21077700  14.010000   ; qtot 124.240190
 3250         hn    125    ccc     H7   3250 0.28399900   1.008000   ; qtot 124.524189
 3251         hn    125    ccc     H8   3251 0.28399900   1.008000   ; qtot 124.808188
 3252         os    125    ccc     O1   3252 -0.09200600  16.000000   ; qtot 124.716182
 3253         hn    125    ccc    H17   3253 0.28399900   1.008000   ; qtot 125.000181
; residue  126 ccc rtp ccc q 1.0
 3254         c3    126    ccc     C1   3254 0.17060900  12.010000   ; qtot 125.170790
 3255         hx    126    ccc     H1   3255 0.04213200   1.008000   ; qtot 125.212922
 3256         hx    126    ccc     H2   3256 0.04213200   1.008000   ; qtot 125.255054
 3257         c3    126    ccc     C2   3257 -0.04496700  12.010000   ; qtot 125.210087
 3258         hc    126    ccc     H3   3258 0.02647500   1.008000   ; qtot 125.236562
 3259         hc    126    ccc     H4   3259 0.02647500   1.008000   ; qtot 125.263037
 3260         c3    126    ccc     C3   3260 0.04732600  12.010000   ; qtot 125.310363
 3261         h1    126    ccc     H5   3261 0.07030200   1.008000   ; qtot 125.380665
 3262         h1    126    ccc     H6   3262 0.07030200   1.008000   ; qtot 125.450967
 3263         n4    126    ccc     N1   3263 -0.21077700  14.010000   ; qtot 125.240190
 3264         hn    126    ccc     H7   3264 0.28399900   1.008000   ; qtot 125.524189
 3265         hn    126    ccc     H8   3265 0.28399900   1.008000   ; qtot 125.808188
 3266         os    126    ccc     O1   3266 -0.09200600  16.000000   ; qtot 125.716182
 3267         hn    126    ccc    H17   3267 0.28399900   1.008000   ; qtot 126.000181
; residue  127 ccc rtp ccc q 1.0
 3268         c3    127    ccc     C1   3268 0.17060900  12.010000   ; qtot 126.170790
 3269         hx    127    ccc     H1   3269 0.04213200   1.008000   ; qtot 126.212922
 3270         hx    127    ccc     H2   3270 0.04213200   1.008000   ; qtot 126.255054
 3271         c3    127    ccc     C2   3271 -0.04496700  12.010000   ; qtot 126.210087
 3272         hc    127    ccc     H3   3272 0.02647500   1.008000   ; qtot 126.236562
 3273         hc    127    ccc     H4   3273 0.02647500   1.008000   ; qtot 126.263037
 3274         c3    127    ccc     C3   3274 0.04732600  12.010000   ; qtot 126.310363
 3275         h1    127    ccc     H5   3275 0.07030200   1.008000   ; qtot 126.380665
 3276         h1    127    ccc     H6   3276 0.07030200   1.008000   ; qtot 126.450967
 3277         n4    127    ccc     N1   3277 -0.21077700  14.010000   ; qtot 126.240190
 3278         hn    127    ccc     H7   3278 0.28399900   1.008000   ; qtot 126.524189
 3279         hn    127    ccc     H8   3279 0.28399900   1.008000   ; qtot 126.808188
 3280         os    127    ccc     O1   3280 -0.09200600  16.000000   ; qtot 126.716182
 3281         hn    127    ccc    H17   3281 0.28399900   1.008000   ; qtot 127.000181
; residue  128 ccc rtp ccc q 1.0
 3282         c3    128    ccc     C1   3282 0.17060900  12.010000   ; qtot 127.170790
 3283         hx    128    ccc     H1   3283 0.04213200   1.008000   ; qtot 127.212922
 3284         hx    128    ccc     H2   3284 0.04213200   1.008000   ; qtot 127.255054
 3285         c3    128    ccc     C2   3285 -0.04496700  12.010000   ; qtot 127.210087
 3286         hc    128    ccc     H3   3286 0.02647500   1.008000   ; qtot 127.236562
 3287         hc    128    ccc     H4   3287 0.02647500   1.008000   ; qtot 127.263037
 3288         c3    128    ccc     C3   3288 0.04732600  12.010000   ; qtot 127.310363
 3289         h1    128    ccc     H5   3289 0.07030200   1.008000   ; qtot 127.380665
 3290         h1    128    ccc     H6   3290 0.07030200   1.008000   ; qtot 127.450967
 3291         n4    128    ccc     N1   3291 -0.21077700  14.010000   ; qtot 127.240190
 3292         hn    128    ccc     H7   3292 0.28399900   1.008000   ; qtot 127.524189
 3293         hn    128    ccc     H8   3293 0.28399900   1.008000   ; qtot 127.808188
 3294         os    128    ccc     O1   3294 -0.09200600  16.000000   ; qtot 127.716182
 3295         hn    128    ccc    H17   3295 0.28399900   1.008000   ; qtot 128.000181
; residue  129 ccc rtp ccc q 1.0
 3296         c3    129    ccc     C1   3296 0.17060900  12.010000   ; qtot 128.170790
 3297         hx    129    ccc     H1   3297 0.04213200   1.008000   ; qtot 128.212922
 3298         hx    129    ccc     H2   3298 0.04213200   1.008000   ; qtot 128.255054
 3299         c3    129    ccc     C2   3299 -0.04496700  12.010000   ; qtot 128.210087
 3300         hc    129    ccc     H3   3300 0.02647500   1.008000   ; qtot 128.236562
 3301         hc    129    ccc     H4   3301 0.02647500   1.008000   ; qtot 128.263037
 3302         c3    129    ccc     C3   3302 0.04732600  12.010000   ; qtot 128.310363
 3303         h1    129    ccc     H5   3303 0.07030200   1.008000   ; qtot 128.380665
 3304         h1    129    ccc     H6   3304 0.07030200   1.008000   ; qtot 128.450967
 3305         n4    129    ccc     N1   3305 -0.21077700  14.010000   ; qtot 128.240190
 3306         hn    129    ccc     H7   3306 0.28399900   1.008000   ; qtot 128.524189
 3307         hn    129    ccc     H8   3307 0.28399900   1.008000   ; qtot 128.808188
 3308         os    129    ccc     O1   3308 -0.09200600  16.000000   ; qtot 128.716182
 3309         hn    129    ccc    H17   3309 0.28399900   1.008000   ; qtot 129.000181
; residue  130 ccc rtp ccc q 1.0
 3310         c3    130    ccc     C1   3310 0.17060900  12.010000   ; qtot 129.170790
 3311         hx    130    ccc     H1   3311 0.04213200   1.008000   ; qtot 129.212922
 3312         hx    130    ccc     H2   3312 0.04213200   1.008000   ; qtot 129.255054
 3313         c3    130    ccc     C2   3313 -0.04496700  12.010000   ; qtot 129.210087
 3314         hc    130    ccc     H3   3314 0.02647500   1.008000   ; qtot 129.236562
 3315         hc    130    ccc     H4   3315 0.02647500   1.008000   ; qtot 129.263037
 3316         c3    130    ccc     C3   3316 0.04732600  12.010000   ; qtot 129.310363
 3317         h1    130    ccc     H5   3317 0.07030200   1.008000   ; qtot 129.380665
 3318         h1    130    ccc     H6   3318 0.07030200   1.008000   ; qtot 129.450967
 3319         n4    130    ccc     N1   3319 -0.21077700  14.010000   ; qtot 129.240190
 3320         hn    130    ccc     H7   3320 0.28399900   1.008000   ; qtot 129.524189
 3321         hn    130    ccc     H8   3321 0.28399900   1.008000   ; qtot 129.808188
 3322         os    130    ccc     O1   3322 -0.09200600  16.000000   ; qtot 129.716182
 3323         hn    130    ccc    H17   3323 0.28399900   1.008000   ; qtot 130.000181
; residue  131 ccc rtp ccc q 1.0
 3324         c3    131    ccc     C1   3324 0.17060900  12.010000   ; qtot 130.170790
 3325         hx    131    ccc     H1   3325 0.04213200   1.008000   ; qtot 130.212922
 3326         hx    131    ccc     H2   3326 0.04213200   1.008000   ; qtot 130.255054
 3327         c3    131    ccc     C2   3327 -0.04496700  12.010000   ; qtot 130.210087
 3328         hc    131    ccc     H3   3328 0.02647500   1.008000   ; qtot 130.236562
 3329         hc    131    ccc     H4   3329 0.02647500   1.008000   ; qtot 130.263037
 3330         c3    131    ccc     C3   3330 0.04732600  12.010000   ; qtot 130.310363
 3331         h1    131    ccc     H5   3331 0.07030200   1.008000   ; qtot 130.380665
 3332         h1    131    ccc     H6   3332 0.07030200   1.008000   ; qtot 130.450967
 3333         n4    131    ccc     N1   3333 -0.21077700  14.010000   ; qtot 130.240190
 3334         hn    131    ccc     H7   3334 0.28399900   1.008000   ; qtot 130.524189
 3335         hn    131    ccc     H8   3335 0.28399900   1.008000   ; qtot 130.808188
 3336         os    131    ccc     O1   3336 -0.09200600  16.000000   ; qtot 130.716182
 3337         hn    131    ccc    H17   3337 0.28399900   1.008000   ; qtot 131.000181
; residue  132 ccc rtp ccc q 1.0
 3338         c3    132    ccc     C1   3338 0.17060900  12.010000   ; qtot 131.170790
 3339         hx    132    ccc     H1   3339 0.04213200   1.008000   ; qtot 131.212922
 3340         hx    132    ccc     H2   3340 0.04213200   1.008000   ; qtot 131.255054
 3341         c3    132    ccc     C2   3341 -0.04496700  12.010000   ; qtot 131.210087
 3342         hc    132    ccc     H3   3342 0.02647500   1.008000   ; qtot 131.236562
 3343         hc    132    ccc     H4   3343 0.02647500   1.008000   ; qtot 131.263037
 3344         c3    132    ccc     C3   3344 0.04732600  12.010000   ; qtot 131.310363
 3345         h1    132    ccc     H5   3345 0.07030200   1.008000   ; qtot 131.380665
 3346         h1    132    ccc     H6   3346 0.07030200   1.008000   ; qtot 131.450967
 3347         n4    132    ccc     N1   3347 -0.21077700  14.010000   ; qtot 131.240190
 3348         hn    132    ccc     H7   3348 0.28399900   1.008000   ; qtot 131.524189
 3349         hn    132    ccc     H8   3349 0.28399900   1.008000   ; qtot 131.808188
 3350         os    132    ccc     O1   3350 -0.09200600  16.000000   ; qtot 131.716182
 3351         hn    132    ccc    H17   3351 0.28399900   1.008000   ; qtot 132.000181
; residue  133 ccc rtp ccc q 1.0
 3352         c3    133    ccc     C1   3352 0.17060900  12.010000   ; qtot 132.170790
 3353         hx    133    ccc     H1   3353 0.04213200   1.008000   ; qtot 132.212922
 3354         hx    133    ccc     H2   3354 0.04213200   1.008000   ; qtot 132.255054
 3355         c3    133    ccc     C2   3355 -0.04496700  12.010000   ; qtot 132.210087
 3356         hc    133    ccc     H3   3356 0.02647500   1.008000   ; qtot 132.236562
 3357         hc    133    ccc     H4   3357 0.02647500   1.008000   ; qtot 132.263037
 3358         c3    133    ccc     C3   3358 0.04732600  12.010000   ; qtot 132.310363
 3359         h1    133    ccc     H5   3359 0.07030200   1.008000   ; qtot 132.380665
 3360         h1    133    ccc     H6   3360 0.07030200   1.008000   ; qtot 132.450967
 3361         n4    133    ccc     N1   3361 -0.21077700  14.010000   ; qtot 132.240190
 3362         hn    133    ccc     H7   3362 0.28399900   1.008000   ; qtot 132.524189
 3363         hn    133    ccc     H8   3363 0.28399900   1.008000   ; qtot 132.808188
 3364         os    133    ccc     O1   3364 -0.09200600  16.000000   ; qtot 132.716182
 3365         hn    133    ccc    H17   3365 0.28399900   1.008000   ; qtot 133.000181
; residue  134 ccc rtp ccc q 1.0
 3366         c3    134    ccc     C1   3366 0.17060900  12.010000   ; qtot 133.170790
 3367         hx    134    ccc     H1   3367 0.04213200   1.008000   ; qtot 133.212922
 3368         hx    134    ccc     H2   3368 0.04213200   1.008000   ; qtot 133.255054
 3369         c3    134    ccc     C2   3369 -0.04496700  12.010000   ; qtot 133.210087
 3370         hc    134    ccc     H3   3370 0.02647500   1.008000   ; qtot 133.236562
 3371         hc    134    ccc     H4   3371 0.02647500   1.008000   ; qtot 133.263037
 3372         c3    134    ccc     C3   3372 0.04732600  12.010000   ; qtot 133.310363
 3373         h1    134    ccc     H5   3373 0.07030200   1.008000   ; qtot 133.380665
 3374         h1    134    ccc     H6   3374 0.07030200   1.008000   ; qtot 133.450967
 3375         n4    134    ccc     N1   3375 -0.21077700  14.010000   ; qtot 133.240190
 3376         hn    134    ccc     H7   3376 0.28399900   1.008000   ; qtot 133.524189
 3377         hn    134    ccc     H8   3377 0.28399900   1.008000   ; qtot 133.808188
 3378         os    134    ccc     O1   3378 -0.09200600  16.000000   ; qtot 133.716182
 3379         hn    134    ccc    H17   3379 0.28399900   1.008000   ; qtot 134.000181
; residue  135 ccc rtp ccc q 1.0
 3380         c3    135    ccc     C1   3380 0.17060900  12.010000   ; qtot 134.170790
 3381         hx    135    ccc     H1   3381 0.04213200   1.008000   ; qtot 134.212922
 3382         hx    135    ccc     H2   3382 0.04213200   1.008000   ; qtot 134.255054
 3383         c3    135    ccc     C2   3383 -0.04496700  12.010000   ; qtot 134.210087
 3384         hc    135    ccc     H3   3384 0.02647500   1.008000   ; qtot 134.236562
 3385         hc    135    ccc     H4   3385 0.02647500   1.008000   ; qtot 134.263037
 3386         c3    135    ccc     C3   3386 0.04732600  12.010000   ; qtot 134.310363
 3387         h1    135    ccc     H5   3387 0.07030200   1.008000   ; qtot 134.380665
 3388         h1    135    ccc     H6   3388 0.07030200   1.008000   ; qtot 134.450967
 3389         n4    135    ccc     N1   3389 -0.21077700  14.010000   ; qtot 134.240190
 3390         hn    135    ccc     H7   3390 0.28399900   1.008000   ; qtot 134.524189
 3391         hn    135    ccc     H8   3391 0.28399900   1.008000   ; qtot 134.808188
 3392         os    135    ccc     O1   3392 -0.09200600  16.000000   ; qtot 134.716182
 3393         hn    135    ccc    H17   3393 0.28399900   1.008000   ; qtot 135.000181
; residue  136 ccc rtp ccc q 1.0
 3394         c3    136    ccc     C1   3394 0.17060900  12.010000   ; qtot 135.170790
 3395         hx    136    ccc     H1   3395 0.04213200   1.008000   ; qtot 135.212922
 3396         hx    136    ccc     H2   3396 0.04213200   1.008000   ; qtot 135.255054
 3397         c3    136    ccc     C2   3397 -0.04496700  12.010000   ; qtot 135.210087
 3398         hc    136    ccc     H3   3398 0.02647500   1.008000   ; qtot 135.236562
 3399         hc    136    ccc     H4   3399 0.02647500   1.008000   ; qtot 135.263037
 3400         c3    136    ccc     C3   3400 0.04732600  12.010000   ; qtot 135.310363
 3401         h1    136    ccc     H5   3401 0.07030200   1.008000   ; qtot 135.380665
 3402         h1    136    ccc     H6   3402 0.07030200   1.008000   ; qtot 135.450967
 3403         n4    136    ccc     N1   3403 -0.21077700  14.010000   ; qtot 135.240190
 3404         hn    136    ccc     H7   3404 0.28399900   1.008000   ; qtot 135.524189
 3405         hn    136    ccc     H8   3405 0.28399900   1.008000   ; qtot 135.808188
 3406         os    136    ccc     O1   3406 -0.09200600  16.000000   ; qtot 135.716182
 3407         hn    136    ccc    H17   3407 0.28399900   1.008000   ; qtot 136.000181
; residue  137 ccc rtp ccc q 1.0
 3408         c3    137    ccc     C1   3408 0.17060900  12.010000   ; qtot 136.170790
 3409         hx    137    ccc     H1   3409 0.04213200   1.008000   ; qtot 136.212922
 3410         hx    137    ccc     H2   3410 0.04213200   1.008000   ; qtot 136.255054
 3411         c3    137    ccc     C2   3411 -0.04496700  12.010000   ; qtot 136.210087
 3412         hc    137    ccc     H3   3412 0.02647500   1.008000   ; qtot 136.236562
 3413         hc    137    ccc     H4   3413 0.02647500   1.008000   ; qtot 136.263037
 3414         c3    137    ccc     C3   3414 0.04732600  12.010000   ; qtot 136.310363
 3415         h1    137    ccc     H5   3415 0.07030200   1.008000   ; qtot 136.380665
 3416         h1    137    ccc     H6   3416 0.07030200   1.008000   ; qtot 136.450967
 3417         n4    137    ccc     N1   3417 -0.21077700  14.010000   ; qtot 136.240190
 3418         hn    137    ccc     H7   3418 0.28399900   1.008000   ; qtot 136.524189
 3419         hn    137    ccc     H8   3419 0.28399900   1.008000   ; qtot 136.808188
 3420         os    137    ccc     O1   3420 -0.09200600  16.000000   ; qtot 136.716182
 3421         hn    137    ccc    H17   3421 0.28399900   1.008000   ; qtot 137.000181
; residue  138 ccc rtp ccc q 1.0
 3422         c3    138    ccc     C1   3422 0.17060900  12.010000   ; qtot 137.170790
 3423         hx    138    ccc     H1   3423 0.04213200   1.008000   ; qtot 137.212922
 3424         hx    138    ccc     H2   3424 0.04213200   1.008000   ; qtot 137.255054
 3425         c3    138    ccc     C2   3425 -0.04496700  12.010000   ; qtot 137.210087
 3426         hc    138    ccc     H3   3426 0.02647500   1.008000   ; qtot 137.236562
 3427         hc    138    ccc     H4   3427 0.02647500   1.008000   ; qtot 137.263037
 3428         c3    138    ccc     C3   3428 0.04732600  12.010000   ; qtot 137.310363
 3429         h1    138    ccc     H5   3429 0.07030200   1.008000   ; qtot 137.380665
 3430         h1    138    ccc     H6   3430 0.07030200   1.008000   ; qtot 137.450967
 3431         n4    138    ccc     N1   3431 -0.21077700  14.010000   ; qtot 137.240190
 3432         hn    138    ccc     H7   3432 0.28399900   1.008000   ; qtot 137.524189
 3433         hn    138    ccc     H8   3433 0.28399900   1.008000   ; qtot 137.808188
 3434         os    138    ccc     O1   3434 -0.09200600  16.000000   ; qtot 137.716182
 3435         hn    138    ccc    H17   3435 0.28399900   1.008000   ; qtot 138.000181
; residue  139 ccc rtp ccc q 1.0
 3436         c3    139    ccc     C1   3436 0.17060900  12.010000   ; qtot 138.170790
 3437         hx    139    ccc     H1   3437 0.04213200   1.008000   ; qtot 138.212922
 3438         hx    139    ccc     H2   3438 0.04213200   1.008000   ; qtot 138.255054
 3439         c3    139    ccc     C2   3439 -0.04496700  12.010000   ; qtot 138.210087
 3440         hc    139    ccc     H3   3440 0.02647500   1.008000   ; qtot 138.236562
 3441         hc    139    ccc     H4   3441 0.02647500   1.008000   ; qtot 138.263037
 3442         c3    139    ccc     C3   3442 0.04732600  12.010000   ; qtot 138.310363
 3443         h1    139    ccc     H5   3443 0.07030200   1.008000   ; qtot 138.380665
 3444         h1    139    ccc     H6   3444 0.07030200   1.008000   ; qtot 138.450967
 3445         n4    139    ccc     N1   3445 -0.21077700  14.010000   ; qtot 138.240190
 3446         hn    139    ccc     H7   3446 0.28399900   1.008000   ; qtot 138.524189
 3447         hn    139    ccc     H8   3447 0.28399900   1.008000   ; qtot 138.808188
 3448         os    139    ccc     O1   3448 -0.09200600  16.000000   ; qtot 138.716182
 3449         hn    139    ccc    H17   3449 0.28399900   1.008000   ; qtot 139.000181
; residue  140 ccc rtp ccc q 1.0
 3450         c3    140    ccc     C1   3450 0.17060900  12.010000   ; qtot 139.170790
 3451         hx    140    ccc     H1   3451 0.04213200   1.008000   ; qtot 139.212922
 3452         hx    140    ccc     H2   3452 0.04213200   1.008000   ; qtot 139.255054
 3453         c3    140    ccc     C2   3453 -0.04496700  12.010000   ; qtot 139.210087
 3454         hc    140    ccc     H3   3454 0.02647500   1.008000   ; qtot 139.236562
 3455         hc    140    ccc     H4   3455 0.02647500   1.008000   ; qtot 139.263037
 3456         c3    140    ccc     C3   3456 0.04732600  12.010000   ; qtot 139.310363
 3457         h1    140    ccc     H5   3457 0.07030200   1.008000   ; qtot 139.380665
 3458         h1    140    ccc     H6   3458 0.07030200   1.008000   ; qtot 139.450967
 3459         n4    140    ccc     N1   3459 -0.21077700  14.010000   ; qtot 139.240190
 3460         hn    140    ccc     H7   3460 0.28399900   1.008000   ; qtot 139.524189
 3461         hn    140    ccc     H8   3461 0.28399900   1.008000   ; qtot 139.808188
 3462         os    140    ccc     O1   3462 -0.09200600  16.000000   ; qtot 139.716182
 3463         hn    140    ccc    H17   3463 0.28399900   1.008000   ; qtot 140.000181
; residue  141 ccc rtp ccc q 1.0
 3464         c3    141    ccc     C1   3464 0.17060900  12.010000   ; qtot 140.170790
 3465         hx    141    ccc     H1   3465 0.04213200   1.008000   ; qtot 140.212922
 3466         hx    141    ccc     H2   3466 0.04213200   1.008000   ; qtot 140.255054
 3467         c3    141    ccc     C2   3467 -0.04496700  12.010000   ; qtot 140.210087
 3468         hc    141    ccc     H3   3468 0.02647500   1.008000   ; qtot 140.236562
 3469         hc    141    ccc     H4   3469 0.02647500   1.008000   ; qtot 140.263037
 3470         c3    141    ccc     C3   3470 0.04732600  12.010000   ; qtot 140.310363
 3471         h1    141    ccc     H5   3471 0.07030200   1.008000   ; qtot 140.380665
 3472         h1    141    ccc     H6   3472 0.07030200   1.008000   ; qtot 140.450967
 3473         n4    141    ccc     N1   3473 -0.21077700  14.010000   ; qtot 140.240190
 3474         hn    141    ccc     H7   3474 0.28399900   1.008000   ; qtot 140.524189
 3475         hn    141    ccc     H8   3475 0.28399900   1.008000   ; qtot 140.808188
 3476         os    141    ccc     O1   3476 -0.09200600  16.000000   ; qtot 140.716182
 3477         hn    141    ccc    H17   3477 0.28399900   1.008000   ; qtot 141.000181
; residue  142 ccc rtp ccc q 1.0
 3478         c3    142    ccc     C1   3478 0.17060900  12.010000   ; qtot 141.170790
 3479         hx    142    ccc     H1   3479 0.04213200   1.008000   ; qtot 141.212922
 3480         hx    142    ccc     H2   3480 0.04213200   1.008000   ; qtot 141.255054
 3481         c3    142    ccc     C2   3481 -0.04496700  12.010000   ; qtot 141.210087
 3482         hc    142    ccc     H3   3482 0.02647500   1.008000   ; qtot 141.236562
 3483         hc    142    ccc     H4   3483 0.02647500   1.008000   ; qtot 141.263037
 3484         c3    142    ccc     C3   3484 0.04732600  12.010000   ; qtot 141.310363
 3485         h1    142    ccc     H5   3485 0.07030200   1.008000   ; qtot 141.380665
 3486         h1    142    ccc     H6   3486 0.07030200   1.008000   ; qtot 141.450967
 3487         n4    142    ccc     N1   3487 -0.21077700  14.010000   ; qtot 141.240190
 3488         hn    142    ccc     H7   3488 0.28399900   1.008000   ; qtot 141.524189
 3489         hn    142    ccc     H8   3489 0.28399900   1.008000   ; qtot 141.808188
 3490         os    142    ccc     O1   3490 -0.09200600  16.000000   ; qtot 141.716182
 3491         hn    142    ccc    H17   3491 0.28399900   1.008000   ; qtot 142.000181
; residue  143 ccc rtp ccc q 1.0
 3492         c3    143    ccc     C1   3492 0.17060900  12.010000   ; qtot 142.170790
 3493         hx    143    ccc     H1   3493 0.04213200   1.008000   ; qtot 142.212922
 3494         hx    143    ccc     H2   3494 0.04213200   1.008000   ; qtot 142.255054
 3495         c3    143    ccc     C2   3495 -0.04496700  12.010000   ; qtot 142.210087
 3496         hc    143    ccc     H3   3496 0.02647500   1.008000   ; qtot 142.236562
 3497         hc    143    ccc     H4   3497 0.02647500   1.008000   ; qtot 142.263037
 3498         c3    143    ccc     C3   3498 0.04732600  12.010000   ; qtot 142.310363
 3499         h1    143    ccc     H5   3499 0.07030200   1.008000   ; qtot 142.380665
 3500         h1    143    ccc     H6   3500 0.07030200   1.008000   ; qtot 142.450967
 3501         n4    143    ccc     N1   3501 -0.21077700  14.010000   ; qtot 142.240190
 3502         hn    143    ccc     H7   3502 0.28399900   1.008000   ; qtot 142.524189
 3503         hn    143    ccc     H8   3503 0.28399900   1.008000   ; qtot 142.808188
 3504         os    143    ccc     O1   3504 -0.09200600  16.000000   ; qtot 142.716182
 3505         hn    143    ccc    H17   3505 0.28399900   1.008000   ; qtot 143.000181
; residue  144 ccc rtp ccc q 1.0
 3506         c3    144    ccc     C1   3506 0.17060900  12.010000   ; qtot 143.170790
 3507         hx    144    ccc     H1   3507 0.04213200   1.008000   ; qtot 143.212922
 3508         hx    144    ccc     H2   3508 0.04213200   1.008000   ; qtot 143.255054
 3509         c3    144    ccc     C2   3509 -0.04496700  12.010000   ; qtot 143.210087
 3510         hc    144    ccc     H3   3510 0.02647500   1.008000   ; qtot 143.236562
 3511         hc    144    ccc     H4   3511 0.02647500   1.008000   ; qtot 143.263037
 3512         c3    144    ccc     C3   3512 0.04732600  12.010000   ; qtot 143.310363
 3513         h1    144    ccc     H5   3513 0.07030200   1.008000   ; qtot 143.380665
 3514         h1    144    ccc     H6   3514 0.07030200   1.008000   ; qtot 143.450967
 3515         n4    144    ccc     N1   3515 -0.21077700  14.010000   ; qtot 143.240190
 3516         hn    144    ccc     H7   3516 0.28399900   1.008000   ; qtot 143.524189
 3517         hn    144    ccc     H8   3517 0.28399900   1.008000   ; qtot 143.808188
 3518         os    144    ccc     O1   3518 -0.09200600  16.000000   ; qtot 143.716182
 3519         hn    144    ccc    H17   3519 0.28399900   1.008000   ; qtot 144.000181
; residue  145 ccc rtp ccc q 1.0
 3520         c3    145    ccc     C1   3520 0.17060900  12.010000   ; qtot 144.170790
 3521         hx    145    ccc     H1   3521 0.04213200   1.008000   ; qtot 144.212922
 3522         hx    145    ccc     H2   3522 0.04213200   1.008000   ; qtot 144.255054
 3523         c3    145    ccc     C2   3523 -0.04496700  12.010000   ; qtot 144.210087
 3524         hc    145    ccc     H3   3524 0.02647500   1.008000   ; qtot 144.236562
 3525         hc    145    ccc     H4   3525 0.02647500   1.008000   ; qtot 144.263037
 3526         c3    145    ccc     C3   3526 0.04732600  12.010000   ; qtot 144.310363
 3527         h1    145    ccc     H5   3527 0.07030200   1.008000   ; qtot 144.380665
 3528         h1    145    ccc     H6   3528 0.07030200   1.008000   ; qtot 144.450967
 3529         n4    145    ccc     N1   3529 -0.21077700  14.010000   ; qtot 144.240190
 3530         hn    145    ccc     H7   3530 0.28399900   1.008000   ; qtot 144.524189
 3531         hn    145    ccc     H8   3531 0.28399900   1.008000   ; qtot 144.808188
 3532         os    145    ccc     O1   3532 -0.09200600  16.000000   ; qtot 144.716182
 3533         hn    145    ccc    H17   3533 0.28399900   1.008000   ; qtot 145.000181
; residue  146 ccc rtp ccc q 1.0
 3534         c3    146    ccc     C1   3534 0.17060900  12.010000   ; qtot 145.170790
 3535         hx    146    ccc     H1   3535 0.04213200   1.008000   ; qtot 145.212922
 3536         hx    146    ccc     H2   3536 0.04213200   1.008000   ; qtot 145.255054
 3537         c3    146    ccc     C2   3537 -0.04496700  12.010000   ; qtot 145.210087
 3538         hc    146    ccc     H3   3538 0.02647500   1.008000   ; qtot 145.236562
 3539         hc    146    ccc     H4   3539 0.02647500   1.008000   ; qtot 145.263037
 3540         c3    146    ccc     C3   3540 0.04732600  12.010000   ; qtot 145.310363
 3541         h1    146    ccc     H5   3541 0.07030200   1.008000   ; qtot 145.380665
 3542         h1    146    ccc     H6   3542 0.07030200   1.008000   ; qtot 145.450967
 3543         n4    146    ccc     N1   3543 -0.21077700  14.010000   ; qtot 145.240190
 3544         hn    146    ccc     H7   3544 0.28399900   1.008000   ; qtot 145.524189
 3545         hn    146    ccc     H8   3545 0.28399900   1.008000   ; qtot 145.808188
 3546         os    146    ccc     O1   3546 -0.09200600  16.000000   ; qtot 145.716182
 3547         hn    146    ccc    H17   3547 0.28399900   1.008000   ; qtot 146.000181
; residue  147 ccc rtp ccc q 1.0
 3548         c3    147    ccc     C1   3548 0.17060900  12.010000   ; qtot 146.170790
 3549         hx    147    ccc     H1   3549 0.04213200   1.008000   ; qtot 146.212922
 3550         hx    147    ccc     H2   3550 0.04213200   1.008000   ; qtot 146.255054
 3551         c3    147    ccc     C2   3551 -0.04496700  12.010000   ; qtot 146.210087
 3552         hc    147    ccc     H3   3552 0.02647500   1.008000   ; qtot 146.236562
 3553         hc    147    ccc     H4   3553 0.02647500   1.008000   ; qtot 146.263037
 3554         c3    147    ccc     C3   3554 0.04732600  12.010000   ; qtot 146.310363
 3555         h1    147    ccc     H5   3555 0.07030200   1.008000   ; qtot 146.380665
 3556         h1    147    ccc     H6   3556 0.07030200   1.008000   ; qtot 146.450967
 3557         n4    147    ccc     N1   3557 -0.21077700  14.010000   ; qtot 146.240190
 3558         hn    147    ccc     H7   3558 0.28399900   1.008000   ; qtot 146.524189
 3559         hn    147    ccc     H8   3559 0.28399900   1.008000   ; qtot 146.808188
 3560         os    147    ccc     O1   3560 -0.09200600  16.000000   ; qtot 146.716182
 3561         hn    147    ccc    H17   3561 0.28399900   1.008000   ; qtot 147.000181
; residue  148 ccc rtp ccc q 1.0
 3562         c3    148    ccc     C1   3562 0.17060900  12.010000   ; qtot 147.170790
 3563         hx    148    ccc     H1   3563 0.04213200   1.008000   ; qtot 147.212922
 3564         hx    148    ccc     H2   3564 0.04213200   1.008000   ; qtot 147.255054
 3565         c3    148    ccc     C2   3565 -0.04496700  12.010000   ; qtot 147.210087
 3566         hc    148    ccc     H3   3566 0.02647500   1.008000   ; qtot 147.236562
 3567         hc    148    ccc     H4   3567 0.02647500   1.008000   ; qtot 147.263037
 3568         c3    148    ccc     C3   3568 0.04732600  12.010000   ; qtot 147.310363
 3569         h1    148    ccc     H5   3569 0.07030200   1.008000   ; qtot 147.380665
 3570         h1    148    ccc     H6   3570 0.07030200   1.008000   ; qtot 147.450967
 3571         n4    148    ccc     N1   3571 -0.21077700  14.010000   ; qtot 147.240190
 3572         hn    148    ccc     H7   3572 0.28399900   1.008000   ; qtot 147.524189
 3573         hn    148    ccc     H8   3573 0.28399900   1.008000   ; qtot 147.808188
 3574         os    148    ccc     O1   3574 -0.09200600  16.000000   ; qtot 147.716182
 3575         hn    148    ccc    H17   3575 0.28399900   1.008000   ; qtot 148.000181
; residue  149 ccc rtp ccc q 1.0
 3576         c3    149    ccc     C1   3576 0.17060900  12.010000   ; qtot 148.170790
 3577         hx    149    ccc     H1   3577 0.04213200   1.008000   ; qtot 148.212922
 3578         hx    149    ccc     H2   3578 0.04213200   1.008000   ; qtot 148.255054
 3579         c3    149    ccc     C2   3579 -0.04496700  12.010000   ; qtot 148.210087
 3580         hc    149    ccc     H3   3580 0.02647500   1.008000   ; qtot 148.236562
 3581         hc    149    ccc     H4   3581 0.02647500   1.008000   ; qtot 148.263037
 3582         c3    149    ccc     C3   3582 0.04732600  12.010000   ; qtot 148.310363
 3583         h1    149    ccc     H5   3583 0.07030200   1.008000   ; qtot 148.380665
 3584         h1    149    ccc     H6   3584 0.07030200   1.008000   ; qtot 148.450967
 3585         n4    149    ccc     N1   3585 -0.21077700  14.010000   ; qtot 148.240190
 3586         hn    149    ccc     H7   3586 0.28399900   1.008000   ; qtot 148.524189
 3587         hn    149    ccc     H8   3587 0.28399900   1.008000   ; qtot 148.808188
 3588         os    149    ccc     O1   3588 -0.09200600  16.000000   ; qtot 148.716182
 3589         hn    149    ccc    H17   3589 0.28399900   1.008000   ; qtot 149.000181
; residue  150 ccc rtp ccc q 1.0
 3590         c3    150    ccc     C1   3590 0.17060900  12.010000   ; qtot 149.170790
 3591         hx    150    ccc     H1   3591 0.04213200   1.008000   ; qtot 149.212922
 3592         hx    150    ccc     H2   3592 0.04213200   1.008000   ; qtot 149.255054
 3593         c3    150    ccc     C2   3593 -0.04496700  12.010000   ; qtot 149.210087
 3594         hc    150    ccc     H3   3594 0.02647500   1.008000   ; qtot 149.236562
 3595         hc    150    ccc     H4   3595 0.02647500   1.008000   ; qtot 149.263037
 3596         c3    150    ccc     C3   3596 0.04732600  12.010000   ; qtot 149.310363
 3597         h1    150    ccc     H5   3597 0.07030200   1.008000   ; qtot 149.380665
 3598         h1    150    ccc     H6   3598 0.07030200   1.008000   ; qtot 149.450967
 3599         n4    150    ccc     N1   3599 -0.21077700  14.010000   ; qtot 149.240190
 3600         hn    150    ccc     H7   3600 0.28399900   1.008000   ; qtot 149.524189
 3601         hn    150    ccc     H8   3601 0.28399900   1.008000   ; qtot 149.808188
 3602         os    150    ccc     O1   3602 -0.09200600  16.000000   ; qtot 149.716182
 3603         hn    150    ccc    H17   3603 0.28399900   1.008000   ; qtot 150.000181
; residue  151 ccc rtp ccc q 1.0
 3604         c3    151    ccc     C1   3604 0.17060900  12.010000   ; qtot 150.170790
 3605         hx    151    ccc     H1   3605 0.04213200   1.008000   ; qtot 150.212922
 3606         hx    151    ccc     H2   3606 0.04213200   1.008000   ; qtot 150.255054
 3607         c3    151    ccc     C2   3607 -0.04496700  12.010000   ; qtot 150.210087
 3608         hc    151    ccc     H3   3608 0.02647500   1.008000   ; qtot 150.236562
 3609         hc    151    ccc     H4   3609 0.02647500   1.008000   ; qtot 150.263037
 3610         c3    151    ccc     C3   3610 0.04732600  12.010000   ; qtot 150.310363
 3611         h1    151    ccc     H5   3611 0.07030200   1.008000   ; qtot 150.380665
 3612         h1    151    ccc     H6   3612 0.07030200   1.008000   ; qtot 150.450967
 3613         n4    151    ccc     N1   3613 -0.21077700  14.010000   ; qtot 150.240190
 3614         hn    151    ccc     H7   3614 0.28399900   1.008000   ; qtot 150.524189
 3615         hn    151    ccc     H8   3615 0.28399900   1.008000   ; qtot 150.808188
 3616         os    151    ccc     O1   3616 -0.09200600  16.000000   ; qtot 150.716182
 3617         hn    151    ccc    H17   3617 0.28399900   1.008000   ; qtot 151.000181
; residue  152 ccc rtp ccc q 1.0
 3618         c3    152    ccc     C1   3618 0.17060900  12.010000   ; qtot 151.170790
 3619         hx    152    ccc     H1   3619 0.04213200   1.008000   ; qtot 151.212922
 3620         hx    152    ccc     H2   3620 0.04213200   1.008000   ; qtot 151.255054
 3621         c3    152    ccc     C2   3621 -0.04496700  12.010000   ; qtot 151.210087
 3622         hc    152    ccc     H3   3622 0.02647500   1.008000   ; qtot 151.236562
 3623         hc    152    ccc     H4   3623 0.02647500   1.008000   ; qtot 151.263037
 3624         c3    152    ccc     C3   3624 0.04732600  12.010000   ; qtot 151.310363
 3625         h1    152    ccc     H5   3625 0.07030200   1.008000   ; qtot 151.380665
 3626         h1    152    ccc     H6   3626 0.07030200   1.008000   ; qtot 151.450967
 3627         n4    152    ccc     N1   3627 -0.21077700  14.010000   ; qtot 151.240190
 3628         hn    152    ccc     H7   3628 0.28399900   1.008000   ; qtot 151.524189
 3629         hn    152    ccc     H8   3629 0.28399900   1.008000   ; qtot 151.808188
 3630         os    152    ccc     O1   3630 -0.09200600  16.000000   ; qtot 151.716182
 3631         hn    152    ccc    H17   3631 0.28399900   1.008000   ; qtot 152.000181
; residue  153 ccc rtp ccc q 1.0
 3632         c3    153    ccc     C1   3632 0.17060900  12.010000   ; qtot 152.170790
 3633         hx    153    ccc     H1   3633 0.04213200   1.008000   ; qtot 152.212922
 3634         hx    153    ccc     H2   3634 0.04213200   1.008000   ; qtot 152.255054
 3635         c3    153    ccc     C2   3635 -0.04496700  12.010000   ; qtot 152.210087
 3636         hc    153    ccc     H3   3636 0.02647500   1.008000   ; qtot 152.236562
 3637         hc    153    ccc     H4   3637 0.02647500   1.008000   ; qtot 152.263037
 3638         c3    153    ccc     C3   3638 0.04732600  12.010000   ; qtot 152.310363
 3639         h1    153    ccc     H5   3639 0.07030200   1.008000   ; qtot 152.380665
 3640         h1    153    ccc     H6   3640 0.07030200   1.008000   ; qtot 152.450967
 3641         n4    153    ccc     N1   3641 -0.21077700  14.010000   ; qtot 152.240190
 3642         hn    153    ccc     H7   3642 0.28399900   1.008000   ; qtot 152.524189
 3643         hn    153    ccc     H8   3643 0.28399900   1.008000   ; qtot 152.808188
 3644         os    153    ccc     O1   3644 -0.09200600  16.000000   ; qtot 152.716182
 3645         hn    153    ccc    H17   3645 0.28399900   1.008000   ; qtot 153.000181
; residue  154 ccc rtp ccc q 1.0
 3646         c3    154    ccc     C1   3646 0.17060900  12.010000   ; qtot 153.170790
 3647         hx    154    ccc     H1   3647 0.04213200   1.008000   ; qtot 153.212922
 3648         hx    154    ccc     H2   3648 0.04213200   1.008000   ; qtot 153.255054
 3649         c3    154    ccc     C2   3649 -0.04496700  12.010000   ; qtot 153.210087
 3650         hc    154    ccc     H3   3650 0.02647500   1.008000   ; qtot 153.236562
 3651         hc    154    ccc     H4   3651 0.02647500   1.008000   ; qtot 153.263037
 3652         c3    154    ccc     C3   3652 0.04732600  12.010000   ; qtot 153.310363
 3653         h1    154    ccc     H5   3653 0.07030200   1.008000   ; qtot 153.380665
 3654         h1    154    ccc     H6   3654 0.07030200   1.008000   ; qtot 153.450967
 3655         n4    154    ccc     N1   3655 -0.21077700  14.010000   ; qtot 153.240190
 3656         hn    154    ccc     H7   3656 0.28399900   1.008000   ; qtot 153.524189
 3657         hn    154    ccc     H8   3657 0.28399900   1.008000   ; qtot 153.808188
 3658         os    154    ccc     O1   3658 -0.09200600  16.000000   ; qtot 153.716182
 3659         hn    154    ccc    H17   3659 0.28399900   1.008000   ; qtot 154.000181
; residue  155 ccc rtp ccc q 1.0
 3660         c3    155    ccc     C1   3660 0.17060900  12.010000   ; qtot 154.170790
 3661         hx    155    ccc     H1   3661 0.04213200   1.008000   ; qtot 154.212922
 3662         hx    155    ccc     H2   3662 0.04213200   1.008000   ; qtot 154.255054
 3663         c3    155    ccc     C2   3663 -0.04496700  12.010000   ; qtot 154.210087
 3664         hc    155    ccc     H3   3664 0.02647500   1.008000   ; qtot 154.236562
 3665         hc    155    ccc     H4   3665 0.02647500   1.008000   ; qtot 154.263037
 3666         c3    155    ccc     C3   3666 0.04732600  12.010000   ; qtot 154.310363
 3667         h1    155    ccc     H5   3667 0.07030200   1.008000   ; qtot 154.380665
 3668         h1    155    ccc     H6   3668 0.07030200   1.008000   ; qtot 154.450967
 3669         n4    155    ccc     N1   3669 -0.21077700  14.010000   ; qtot 154.240190
 3670         hn    155    ccc     H7   3670 0.28399900   1.008000   ; qtot 154.524189
 3671         hn    155    ccc     H8   3671 0.28399900   1.008000   ; qtot 154.808188
 3672         os    155    ccc     O1   3672 -0.09200600  16.000000   ; qtot 154.716182
 3673         hn    155    ccc    H17   3673 0.28399900   1.008000   ; qtot 155.000181
; residue  156 ccc rtp ccc q 1.0
 3674         c3    156    ccc     C1   3674 0.17060900  12.010000   ; qtot 155.170790
 3675         hx    156    ccc     H1   3675 0.04213200   1.008000   ; qtot 155.212922
 3676         hx    156    ccc     H2   3676 0.04213200   1.008000   ; qtot 155.255054
 3677         c3    156    ccc     C2   3677 -0.04496700  12.010000   ; qtot 155.210087
 3678         hc    156    ccc     H3   3678 0.02647500   1.008000   ; qtot 155.236562
 3679         hc    156    ccc     H4   3679 0.02647500   1.008000   ; qtot 155.263037
 3680         c3    156    ccc     C3   3680 0.04732600  12.010000   ; qtot 155.310363
 3681         h1    156    ccc     H5   3681 0.07030200   1.008000   ; qtot 155.380665
 3682         h1    156    ccc     H6   3682 0.07030200   1.008000   ; qtot 155.450967
 3683         n4    156    ccc     N1   3683 -0.21077700  14.010000   ; qtot 155.240190
 3684         hn    156    ccc     H7   3684 0.28399900   1.008000   ; qtot 155.524189
 3685         hn    156    ccc     H8   3685 0.28399900   1.008000   ; qtot 155.808188
 3686         os    156    ccc     O1   3686 -0.09200600  16.000000   ; qtot 155.716182
 3687         hn    156    ccc    H17   3687 0.28399900   1.008000   ; qtot 156.000181
; residue  157 ccc rtp ccc q 1.0
 3688         c3    157    ccc     C1   3688 0.17060900  12.010000   ; qtot 156.170790
 3689         hx    157    ccc     H1   3689 0.04213200   1.008000   ; qtot 156.212922
 3690         hx    157    ccc     H2   3690 0.04213200   1.008000   ; qtot 156.255054
 3691         c3    157    ccc     C2   3691 -0.04496700  12.010000   ; qtot 156.210087
 3692         hc    157    ccc     H3   3692 0.02647500   1.008000   ; qtot 156.236562
 3693         hc    157    ccc     H4   3693 0.02647500   1.008000   ; qtot 156.263037
 3694         c3    157    ccc     C3   3694 0.04732600  12.010000   ; qtot 156.310363
 3695         h1    157    ccc     H5   3695 0.07030200   1.008000   ; qtot 156.380665
 3696         h1    157    ccc     H6   3696 0.07030200   1.008000   ; qtot 156.450967
 3697         n4    157    ccc     N1   3697 -0.21077700  14.010000   ; qtot 156.240190
 3698         hn    157    ccc     H7   3698 0.28399900   1.008000   ; qtot 156.524189
 3699         hn    157    ccc     H8   3699 0.28399900   1.008000   ; qtot 156.808188
 3700         os    157    ccc     O1   3700 -0.09200600  16.000000   ; qtot 156.716182
 3701         hn    157    ccc    H17   3701 0.28399900   1.008000   ; qtot 157.000181
; residue  158 ccc rtp ccc q 1.0
 3702         c3    158    ccc     C1   3702 0.17060900  12.010000   ; qtot 157.170790
 3703         hx    158    ccc     H1   3703 0.04213200   1.008000   ; qtot 157.212922
 3704         hx    158    ccc     H2   3704 0.04213200   1.008000   ; qtot 157.255054
 3705         c3    158    ccc     C2   3705 -0.04496700  12.010000   ; qtot 157.210087
 3706         hc    158    ccc     H3   3706 0.02647500   1.008000   ; qtot 157.236562
 3707         hc    158    ccc     H4   3707 0.02647500   1.008000   ; qtot 157.263037
 3708         c3    158    ccc     C3   3708 0.04732600  12.010000   ; qtot 157.310363
 3709         h1    158    ccc     H5   3709 0.07030200   1.008000   ; qtot 157.380665
 3710         h1    158    ccc     H6   3710 0.07030200   1.008000   ; qtot 157.450967
 3711         n4    158    ccc     N1   3711 -0.21077700  14.010000   ; qtot 157.240190
 3712         hn    158    ccc     H7   3712 0.28399900   1.008000   ; qtot 157.524189
 3713         hn    158    ccc     H8   3713 0.28399900   1.008000   ; qtot 157.808188
 3714         os    158    ccc     O1   3714 -0.09200600  16.000000   ; qtot 157.716182
 3715         hn    158    ccc    H17   3715 0.28399900   1.008000   ; qtot 158.000181
; residue  159 ccc rtp ccc q 1.0
 3716         c3    159    ccc     C1   3716 0.17060900  12.010000   ; qtot 158.170790
 3717         hx    159    ccc     H1   3717 0.04213200   1.008000   ; qtot 158.212922
 3718         hx    159    ccc     H2   3718 0.04213200   1.008000   ; qtot 158.255054
 3719         c3    159    ccc     C2   3719 -0.04496700  12.010000   ; qtot 158.210087
 3720         hc    159    ccc     H3   3720 0.02647500   1.008000   ; qtot 158.236562
 3721         hc    159    ccc     H4   3721 0.02647500   1.008000   ; qtot 158.263037
 3722         c3    159    ccc     C3   3722 0.04732600  12.010000   ; qtot 158.310363
 3723         h1    159    ccc     H5   3723 0.07030200   1.008000   ; qtot 158.380665
 3724         h1    159    ccc     H6   3724 0.07030200   1.008000   ; qtot 158.450967
 3725         n4    159    ccc     N1   3725 -0.21077700  14.010000   ; qtot 158.240190
 3726         hn    159    ccc     H7   3726 0.28399900   1.008000   ; qtot 158.524189
 3727         hn    159    ccc     H8   3727 0.28399900   1.008000   ; qtot 158.808188
 3728         os    159    ccc     O1   3728 -0.09200600  16.000000   ; qtot 158.716182
 3729         hn    159    ccc    H17   3729 0.28399900   1.008000   ; qtot 159.000181
; residue  160 ccc rtp ccc q 1.0
 3730         c3    160    ccc     C1   3730 0.17060900  12.010000   ; qtot 159.170790
 3731         hx    160    ccc     H1   3731 0.04213200   1.008000   ; qtot 159.212922
 3732         hx    160    ccc     H2   3732 0.04213200   1.008000   ; qtot 159.255054
 3733         c3    160    ccc     C2   3733 -0.04496700  12.010000   ; qtot 159.210087
 3734         hc    160    ccc     H3   3734 0.02647500   1.008000   ; qtot 159.236562
 3735         hc    160    ccc     H4   3735 0.02647500   1.008000   ; qtot 159.263037
 3736         c3    160    ccc     C3   3736 0.04732600  12.010000   ; qtot 159.310363
 3737         h1    160    ccc     H5   3737 0.07030200   1.008000   ; qtot 159.380665
 3738         h1    160    ccc     H6   3738 0.07030200   1.008000   ; qtot 159.450967
 3739         n4    160    ccc     N1   3739 -0.21077700  14.010000   ; qtot 159.240190
 3740         hn    160    ccc     H7   3740 0.28399900   1.008000   ; qtot 159.524189
 3741         hn    160    ccc     H8   3741 0.28399900   1.008000   ; qtot 159.808188
 3742         os    160    ccc     O1   3742 -0.09200600  16.000000   ; qtot 159.716182
 3743         hn    160    ccc    H17   3743 0.28399900   1.008000   ; qtot 160.000181
; residue  161 ccc rtp ccc q 1.0
 3744         c3    161    ccc     C1   3744 0.17060900  12.010000   ; qtot 160.170790
 3745         hx    161    ccc     H1   3745 0.04213200   1.008000   ; qtot 160.212922
 3746         hx    161    ccc     H2   3746 0.04213200   1.008000   ; qtot 160.255054
 3747         c3    161    ccc     C2   3747 -0.04496700  12.010000   ; qtot 160.210087
 3748         hc    161    ccc     H3   3748 0.02647500   1.008000   ; qtot 160.236562
 3749         hc    161    ccc     H4   3749 0.02647500   1.008000   ; qtot 160.263037
 3750         c3    161    ccc     C3   3750 0.04732600  12.010000   ; qtot 160.310363
 3751         h1    161    ccc     H5   3751 0.07030200   1.008000   ; qtot 160.380665
 3752         h1    161    ccc     H6   3752 0.07030200   1.008000   ; qtot 160.450967
 3753         n4    161    ccc     N1   3753 -0.21077700  14.010000   ; qtot 160.240190
 3754         hn    161    ccc     H7   3754 0.28399900   1.008000   ; qtot 160.524189
 3755         hn    161    ccc     H8   3755 0.28399900   1.008000   ; qtot 160.808188
 3756         os    161    ccc     O1   3756 -0.09200600  16.000000   ; qtot 160.716182
 3757         hn    161    ccc    H17   3757 0.28399900   1.008000   ; qtot 161.000181
; residue  162 ccc rtp ccc q 1.0
 3758         c3    162    ccc     C1   3758 0.17060900  12.010000   ; qtot 161.170790
 3759         hx    162    ccc     H1   3759 0.04213200   1.008000   ; qtot 161.212922
 3760         hx    162    ccc     H2   3760 0.04213200   1.008000   ; qtot 161.255054
 3761         c3    162    ccc     C2   3761 -0.04496700  12.010000   ; qtot 161.210087
 3762         hc    162    ccc     H3   3762 0.02647500   1.008000   ; qtot 161.236562
 3763         hc    162    ccc     H4   3763 0.02647500   1.008000   ; qtot 161.263037
 3764         c3    162    ccc     C3   3764 0.04732600  12.010000   ; qtot 161.310363
 3765         h1    162    ccc     H5   3765 0.07030200   1.008000   ; qtot 161.380665
 3766         h1    162    ccc     H6   3766 0.07030200   1.008000   ; qtot 161.450967
 3767         n4    162    ccc     N1   3767 -0.21077700  14.010000   ; qtot 161.240190
 3768         hn    162    ccc     H7   3768 0.28399900   1.008000   ; qtot 161.524189
 3769         hn    162    ccc     H8   3769 0.28399900   1.008000   ; qtot 161.808188
 3770         os    162    ccc     O1   3770 -0.09200600  16.000000   ; qtot 161.716182
 3771         hn    162    ccc    H17   3771 0.28399900   1.008000   ; qtot 162.000181
; residue  163 ccc rtp ccc q 1.0
 3772         c3    163    ccc     C1   3772 0.17060900  12.010000   ; qtot 162.170790
 3773         hx    163    ccc     H1   3773 0.04213200   1.008000   ; qtot 162.212922
 3774         hx    163    ccc     H2   3774 0.04213200   1.008000   ; qtot 162.255054
 3775         c3    163    ccc     C2   3775 -0.04496700  12.010000   ; qtot 162.210087
 3776         hc    163    ccc     H3   3776 0.02647500   1.008000   ; qtot 162.236562
 3777         hc    163    ccc     H4   3777 0.02647500   1.008000   ; qtot 162.263037
 3778         c3    163    ccc     C3   3778 0.04732600  12.010000   ; qtot 162.310363
 3779         h1    163    ccc     H5   3779 0.07030200   1.008000   ; qtot 162.380665
 3780         h1    163    ccc     H6   3780 0.07030200   1.008000   ; qtot 162.450967
 3781         n4    163    ccc     N1   3781 -0.21077700  14.010000   ; qtot 162.240190
 3782         hn    163    ccc     H7   3782 0.28399900   1.008000   ; qtot 162.524189
 3783         hn    163    ccc     H8   3783 0.28399900   1.008000   ; qtot 162.808188
 3784         os    163    ccc     O1   3784 -0.09200600  16.000000   ; qtot 162.716182
 3785         hn    163    ccc    H17   3785 0.28399900   1.008000   ; qtot 163.000181
; residue  164 ccc rtp ccc q 1.0
 3786         c3    164    ccc     C1   3786 0.17060900  12.010000   ; qtot 163.170790
 3787         hx    164    ccc     H1   3787 0.04213200   1.008000   ; qtot 163.212922
 3788         hx    164    ccc     H2   3788 0.04213200   1.008000   ; qtot 163.255054
 3789         c3    164    ccc     C2   3789 -0.04496700  12.010000   ; qtot 163.210087
 3790         hc    164    ccc     H3   3790 0.02647500   1.008000   ; qtot 163.236562
 3791         hc    164    ccc     H4   3791 0.02647500   1.008000   ; qtot 163.263037
 3792         c3    164    ccc     C3   3792 0.04732600  12.010000   ; qtot 163.310363
 3793         h1    164    ccc     H5   3793 0.07030200   1.008000   ; qtot 163.380665
 3794         h1    164    ccc     H6   3794 0.07030200   1.008000   ; qtot 163.450967
 3795         n4    164    ccc     N1   3795 -0.21077700  14.010000   ; qtot 163.240190
 3796         hn    164    ccc     H7   3796 0.28399900   1.008000   ; qtot 163.524189
 3797         hn    164    ccc     H8   3797 0.28399900   1.008000   ; qtot 163.808188
 3798         os    164    ccc     O1   3798 -0.09200600  16.000000   ; qtot 163.716182
 3799         hn    164    ccc    H17   3799 0.28399900   1.008000   ; qtot 164.000181
; residue  165 ccc rtp ccc q 1.0
 3800         c3    165    ccc     C1   3800 0.17060900  12.010000   ; qtot 164.170790
 3801         hx    165    ccc     H1   3801 0.04213200   1.008000   ; qtot 164.212922
 3802         hx    165    ccc     H2   3802 0.04213200   1.008000   ; qtot 164.255054
 3803         c3    165    ccc     C2   3803 -0.04496700  12.010000   ; qtot 164.210087
 3804         hc    165    ccc     H3   3804 0.02647500   1.008000   ; qtot 164.236562
 3805         hc    165    ccc     H4   3805 0.02647500   1.008000   ; qtot 164.263037
 3806         c3    165    ccc     C3   3806 0.04732600  12.010000   ; qtot 164.310363
 3807         h1    165    ccc     H5   3807 0.07030200   1.008000   ; qtot 164.380665
 3808         h1    165    ccc     H6   3808 0.07030200   1.008000   ; qtot 164.450967
 3809         n4    165    ccc     N1   3809 -0.21077700  14.010000   ; qtot 164.240190
 3810         hn    165    ccc     H7   3810 0.28399900   1.008000   ; qtot 164.524189
 3811         hn    165    ccc     H8   3811 0.28399900   1.008000   ; qtot 164.808188
 3812         os    165    ccc     O1   3812 -0.09200600  16.000000   ; qtot 164.716182
 3813         hn    165    ccc    H17   3813 0.28399900   1.008000   ; qtot 165.000181
; residue  166 ccc rtp ccc q 1.0
 3814         c3    166    ccc     C1   3814 0.17060900  12.010000   ; qtot 165.170790
 3815         hx    166    ccc     H1   3815 0.04213200   1.008000   ; qtot 165.212922
 3816         hx    166    ccc     H2   3816 0.04213200   1.008000   ; qtot 165.255054
 3817         c3    166    ccc     C2   3817 -0.04496700  12.010000   ; qtot 165.210087
 3818         hc    166    ccc     H3   3818 0.02647500   1.008000   ; qtot 165.236562
 3819         hc    166    ccc     H4   3819 0.02647500   1.008000   ; qtot 165.263037
 3820         c3    166    ccc     C3   3820 0.04732600  12.010000   ; qtot 165.310363
 3821         h1    166    ccc     H5   3821 0.07030200   1.008000   ; qtot 165.380665
 3822         h1    166    ccc     H6   3822 0.07030200   1.008000   ; qtot 165.450967
 3823         n4    166    ccc     N1   3823 -0.21077700  14.010000   ; qtot 165.240190
 3824         hn    166    ccc     H7   3824 0.28399900   1.008000   ; qtot 165.524189
 3825         hn    166    ccc     H8   3825 0.28399900   1.008000   ; qtot 165.808188
 3826         os    166    ccc     O1   3826 -0.09200600  16.000000   ; qtot 165.716182
 3827         hn    166    ccc    H17   3827 0.28399900   1.008000   ; qtot 166.000181
; residue  167 ccc rtp ccc q 1.0
 3828         c3    167    ccc     C1   3828 0.17060900  12.010000   ; qtot 166.170790
 3829         hx    167    ccc     H1   3829 0.04213200   1.008000   ; qtot 166.212922
 3830         hx    167    ccc     H2   3830 0.04213200   1.008000   ; qtot 166.255054
 3831         c3    167    ccc     C2   3831 -0.04496700  12.010000   ; qtot 166.210087
 3832         hc    167    ccc     H3   3832 0.02647500   1.008000   ; qtot 166.236562
 3833         hc    167    ccc     H4   3833 0.02647500   1.008000   ; qtot 166.263037
 3834         c3    167    ccc     C3   3834 0.04732600  12.010000   ; qtot 166.310363
 3835         h1    167    ccc     H5   3835 0.07030200   1.008000   ; qtot 166.380665
 3836         h1    167    ccc     H6   3836 0.07030200   1.008000   ; qtot 166.450967
 3837         n4    167    ccc     N1   3837 -0.21077700  14.010000   ; qtot 166.240190
 3838         hn    167    ccc     H7   3838 0.28399900   1.008000   ; qtot 166.524189
 3839         hn    167    ccc     H8   3839 0.28399900   1.008000   ; qtot 166.808188
 3840         os    167    ccc     O1   3840 -0.09200600  16.000000   ; qtot 166.716182
 3841         hn    167    ccc    H17   3841 0.28399900   1.008000   ; qtot 167.000181
; residue  168 ccc rtp ccc q 1.0
 3842         c3    168    ccc     C1   3842 0.17060900  12.010000   ; qtot 167.170790
 3843         hx    168    ccc     H1   3843 0.04213200   1.008000   ; qtot 167.212922
 3844         hx    168    ccc     H2   3844 0.04213200   1.008000   ; qtot 167.255054
 3845         c3    168    ccc     C2   3845 -0.04496700  12.010000   ; qtot 167.210087
 3846         hc    168    ccc     H3   3846 0.02647500   1.008000   ; qtot 167.236562
 3847         hc    168    ccc     H4   3847 0.02647500   1.008000   ; qtot 167.263037
 3848         c3    168    ccc     C3   3848 0.04732600  12.010000   ; qtot 167.310363
 3849         h1    168    ccc     H5   3849 0.07030200   1.008000   ; qtot 167.380665
 3850         h1    168    ccc     H6   3850 0.07030200   1.008000   ; qtot 167.450967
 3851         n4    168    ccc     N1   3851 -0.21077700  14.010000   ; qtot 167.240190
 3852         hn    168    ccc     H7   3852 0.28399900   1.008000   ; qtot 167.524189
 3853         hn    168    ccc     H8   3853 0.28399900   1.008000   ; qtot 167.808188
 3854         os    168    ccc     O1   3854 -0.09200600  16.000000   ; qtot 167.716182
 3855         hn    168    ccc    H17   3855 0.28399900   1.008000   ; qtot 168.000181
; residue  169 ccc rtp ccc q 1.0
 3856         c3    169    ccc     C1   3856 0.17060900  12.010000   ; qtot 168.170790
 3857         hx    169    ccc     H1   3857 0.04213200   1.008000   ; qtot 168.212922
 3858         hx    169    ccc     H2   3858 0.04213200   1.008000   ; qtot 168.255054
 3859         c3    169    ccc     C2   3859 -0.04496700  12.010000   ; qtot 168.210087
 3860         hc    169    ccc     H3   3860 0.02647500   1.008000   ; qtot 168.236562
 3861         hc    169    ccc     H4   3861 0.02647500   1.008000   ; qtot 168.263037
 3862         c3    169    ccc     C3   3862 0.04732600  12.010000   ; qtot 168.310363
 3863         h1    169    ccc     H5   3863 0.07030200   1.008000   ; qtot 168.380665
 3864         h1    169    ccc     H6   3864 0.07030200   1.008000   ; qtot 168.450967
 3865         n4    169    ccc     N1   3865 -0.21077700  14.010000   ; qtot 168.240190
 3866         hn    169    ccc     H7   3866 0.28399900   1.008000   ; qtot 168.524189
 3867         hn    169    ccc     H8   3867 0.28399900   1.008000   ; qtot 168.808188
 3868         os    169    ccc     O1   3868 -0.09200600  16.000000   ; qtot 168.716182
 3869         hn    169    ccc    H17   3869 0.28399900   1.008000   ; qtot 169.000181
; residue  170 ccc rtp ccc q 1.0
 3870         c3    170    ccc     C1   3870 0.17060900  12.010000   ; qtot 169.170790
 3871         hx    170    ccc     H1   3871 0.04213200   1.008000   ; qtot 169.212922
 3872         hx    170    ccc     H2   3872 0.04213200   1.008000   ; qtot 169.255054
 3873         c3    170    ccc     C2   3873 -0.04496700  12.010000   ; qtot 169.210087
 3874         hc    170    ccc     H3   3874 0.02647500   1.008000   ; qtot 169.236562
 3875         hc    170    ccc     H4   3875 0.02647500   1.008000   ; qtot 169.263037
 3876         c3    170    ccc     C3   3876 0.04732600  12.010000   ; qtot 169.310363
 3877         h1    170    ccc     H5   3877 0.07030200   1.008000   ; qtot 169.380665
 3878         h1    170    ccc     H6   3878 0.07030200   1.008000   ; qtot 169.450967
 3879         n4    170    ccc     N1   3879 -0.21077700  14.010000   ; qtot 169.240190
 3880         hn    170    ccc     H7   3880 0.28399900   1.008000   ; qtot 169.524189
 3881         hn    170    ccc     H8   3881 0.28399900   1.008000   ; qtot 169.808188
 3882         os    170    ccc     O1   3882 -0.09200600  16.000000   ; qtot 169.716182
 3883         hn    170    ccc    H17   3883 0.28399900   1.008000   ; qtot 170.000181
; residue  171 ccc rtp ccc q 1.0
 3884         c3    171    ccc     C1   3884 0.17060900  12.010000   ; qtot 170.170790
 3885         hx    171    ccc     H1   3885 0.04213200   1.008000   ; qtot 170.212922
 3886         hx    171    ccc     H2   3886 0.04213200   1.008000   ; qtot 170.255054
 3887         c3    171    ccc     C2   3887 -0.04496700  12.010000   ; qtot 170.210087
 3888         hc    171    ccc     H3   3888 0.02647500   1.008000   ; qtot 170.236562
 3889         hc    171    ccc     H4   3889 0.02647500   1.008000   ; qtot 170.263037
 3890         c3    171    ccc     C3   3890 0.04732600  12.010000   ; qtot 170.310363
 3891         h1    171    ccc     H5   3891 0.07030200   1.008000   ; qtot 170.380665
 3892         h1    171    ccc     H6   3892 0.07030200   1.008000   ; qtot 170.450967
 3893         n4    171    ccc     N1   3893 -0.21077700  14.010000   ; qtot 170.240190
 3894         hn    171    ccc     H7   3894 0.28399900   1.008000   ; qtot 170.524189
 3895         hn    171    ccc     H8   3895 0.28399900   1.008000   ; qtot 170.808188
 3896         os    171    ccc     O1   3896 -0.09200600  16.000000   ; qtot 170.716182
 3897         hn    171    ccc    H17   3897 0.28399900   1.008000   ; qtot 171.000181
; residue  172 ccc rtp ccc q 1.0
 3898         c3    172    ccc     C1   3898 0.17060900  12.010000   ; qtot 171.170790
 3899         hx    172    ccc     H1   3899 0.04213200   1.008000   ; qtot 171.212922
 3900         hx    172    ccc     H2   3900 0.04213200   1.008000   ; qtot 171.255054
 3901         c3    172    ccc     C2   3901 -0.04496700  12.010000   ; qtot 171.210087
 3902         hc    172    ccc     H3   3902 0.02647500   1.008000   ; qtot 171.236562
 3903         hc    172    ccc     H4   3903 0.02647500   1.008000   ; qtot 171.263037
 3904         c3    172    ccc     C3   3904 0.04732600  12.010000   ; qtot 171.310363
 3905         h1    172    ccc     H5   3905 0.07030200   1.008000   ; qtot 171.380665
 3906         h1    172    ccc     H6   3906 0.07030200   1.008000   ; qtot 171.450967
 3907         n4    172    ccc     N1   3907 -0.21077700  14.010000   ; qtot 171.240190
 3908         hn    172    ccc     H7   3908 0.28399900   1.008000   ; qtot 171.524189
 3909         hn    172    ccc     H8   3909 0.28399900   1.008000   ; qtot 171.808188
 3910         os    172    ccc     O1   3910 -0.09200600  16.000000   ; qtot 171.716182
 3911         hn    172    ccc    H17   3911 0.28399900   1.008000   ; qtot 172.000181
; residue  173 ccc rtp ccc q 1.0
 3912         c3    173    ccc     C1   3912 0.17060900  12.010000   ; qtot 172.170790
 3913         hx    173    ccc     H1   3913 0.04213200   1.008000   ; qtot 172.212922
 3914         hx    173    ccc     H2   3914 0.04213200   1.008000   ; qtot 172.255054
 3915         c3    173    ccc     C2   3915 -0.04496700  12.010000   ; qtot 172.210087
 3916         hc    173    ccc     H3   3916 0.02647500   1.008000   ; qtot 172.236562
 3917         hc    173    ccc     H4   3917 0.02647500   1.008000   ; qtot 172.263037
 3918         c3    173    ccc     C3   3918 0.04732600  12.010000   ; qtot 172.310363
 3919         h1    173    ccc     H5   3919 0.07030200   1.008000   ; qtot 172.380665
 3920         h1    173    ccc     H6   3920 0.07030200   1.008000   ; qtot 172.450967
 3921         n4    173    ccc     N1   3921 -0.21077700  14.010000   ; qtot 172.240190
 3922         hn    173    ccc     H7   3922 0.28399900   1.008000   ; qtot 172.524189
 3923         hn    173    ccc     H8   3923 0.28399900   1.008000   ; qtot 172.808188
 3924         os    173    ccc     O1   3924 -0.09200600  16.000000   ; qtot 172.716182
 3925         hn    173    ccc    H17   3925 0.28399900   1.008000   ; qtot 173.000181
; residue  174 ccc rtp ccc q 1.0
 3926         c3    174    ccc     C1   3926 0.17060900  12.010000   ; qtot 173.170790
 3927         hx    174    ccc     H1   3927 0.04213200   1.008000   ; qtot 173.212922
 3928         hx    174    ccc     H2   3928 0.04213200   1.008000   ; qtot 173.255054
 3929         c3    174    ccc     C2   3929 -0.04496700  12.010000   ; qtot 173.210087
 3930         hc    174    ccc     H3   3930 0.02647500   1.008000   ; qtot 173.236562
 3931         hc    174    ccc     H4   3931 0.02647500   1.008000   ; qtot 173.263037
 3932         c3    174    ccc     C3   3932 0.04732600  12.010000   ; qtot 173.310363
 3933         h1    174    ccc     H5   3933 0.07030200   1.008000   ; qtot 173.380665
 3934         h1    174    ccc     H6   3934 0.07030200   1.008000   ; qtot 173.450967
 3935         n4    174    ccc     N1   3935 -0.21077700  14.010000   ; qtot 173.240190
 3936         hn    174    ccc     H7   3936 0.28399900   1.008000   ; qtot 173.524189
 3937         hn    174    ccc     H8   3937 0.28399900   1.008000   ; qtot 173.808188
 3938         os    174    ccc     O1   3938 -0.09200600  16.000000   ; qtot 173.716182
 3939         hn    174    ccc    H17   3939 0.28399900   1.008000   ; qtot 174.000181
; residue  175 ccc rtp ccc q 1.0
 3940         c3    175    ccc     C1   3940 0.17060900  12.010000   ; qtot 174.170790
 3941         hx    175    ccc     H1   3941 0.04213200   1.008000   ; qtot 174.212922
 3942         hx    175    ccc     H2   3942 0.04213200   1.008000   ; qtot 174.255054
 3943         c3    175    ccc     C2   3943 -0.04496700  12.010000   ; qtot 174.210087
 3944         hc    175    ccc     H3   3944 0.02647500   1.008000   ; qtot 174.236562
 3945         hc    175    ccc     H4   3945 0.02647500   1.008000   ; qtot 174.263037
 3946         c3    175    ccc     C3   3946 0.04732600  12.010000   ; qtot 174.310363
 3947         h1    175    ccc     H5   3947 0.07030200   1.008000   ; qtot 174.380665
 3948         h1    175    ccc     H6   3948 0.07030200   1.008000   ; qtot 174.450967
 3949         n4    175    ccc     N1   3949 -0.21077700  14.010000   ; qtot 174.240190
 3950         hn    175    ccc     H7   3950 0.28399900   1.008000   ; qtot 174.524189
 3951         hn    175    ccc     H8   3951 0.28399900   1.008000   ; qtot 174.808188
 3952         os    175    ccc     O1   3952 -0.09200600  16.000000   ; qtot 174.716182
 3953         hn    175    ccc    H17   3953 0.28399900   1.008000   ; qtot 175.000181
; residue  176 ccc rtp ccc q 1.0
 3954         c3    176    ccc     C1   3954 0.17060900  12.010000   ; qtot 175.170790
 3955         hx    176    ccc     H1   3955 0.04213200   1.008000   ; qtot 175.212922
 3956         hx    176    ccc     H2   3956 0.04213200   1.008000   ; qtot 175.255054
 3957         c3    176    ccc     C2   3957 -0.04496700  12.010000   ; qtot 175.210087
 3958         hc    176    ccc     H3   3958 0.02647500   1.008000   ; qtot 175.236562
 3959         hc    176    ccc     H4   3959 0.02647500   1.008000   ; qtot 175.263037
 3960         c3    176    ccc     C3   3960 0.04732600  12.010000   ; qtot 175.310363
 3961         h1    176    ccc     H5   3961 0.07030200   1.008000   ; qtot 175.380665
 3962         h1    176    ccc     H6   3962 0.07030200   1.008000   ; qtot 175.450967
 3963         n4    176    ccc     N1   3963 -0.21077700  14.010000   ; qtot 175.240190
 3964         hn    176    ccc     H7   3964 0.28399900   1.008000   ; qtot 175.524189
 3965         hn    176    ccc     H8   3965 0.28399900   1.008000   ; qtot 175.808188
 3966         os    176    ccc     O1   3966 -0.09200600  16.000000   ; qtot 175.716182
 3967         hn    176    ccc    H17   3967 0.28399900   1.008000   ; qtot 176.000181
; residue  177 ccc rtp ccc q 1.0
 3968         c3    177    ccc     C1   3968 0.17060900  12.010000   ; qtot 176.170790
 3969         hx    177    ccc     H1   3969 0.04213200   1.008000   ; qtot 176.212922
 3970         hx    177    ccc     H2   3970 0.04213200   1.008000   ; qtot 176.255054
 3971         c3    177    ccc     C2   3971 -0.04496700  12.010000   ; qtot 176.210087
 3972         hc    177    ccc     H3   3972 0.02647500   1.008000   ; qtot 176.236562
 3973         hc    177    ccc     H4   3973 0.02647500   1.008000   ; qtot 176.263037
 3974         c3    177    ccc     C3   3974 0.04732600  12.010000   ; qtot 176.310363
 3975         h1    177    ccc     H5   3975 0.07030200   1.008000   ; qtot 176.380665
 3976         h1    177    ccc     H6   3976 0.07030200   1.008000   ; qtot 176.450967
 3977         n4    177    ccc     N1   3977 -0.21077700  14.010000   ; qtot 176.240190
 3978         hn    177    ccc     H7   3978 0.28399900   1.008000   ; qtot 176.524189
 3979         hn    177    ccc     H8   3979 0.28399900   1.008000   ; qtot 176.808188
 3980         os    177    ccc     O1   3980 -0.09200600  16.000000   ; qtot 176.716182
 3981         hn    177    ccc    H17   3981 0.28399900   1.008000   ; qtot 177.000181
; residue  178 ccc rtp ccc q 1.0
 3982         c3    178    ccc     C1   3982 0.17060900  12.010000   ; qtot 177.170790
 3983         hx    178    ccc     H1   3983 0.04213200   1.008000   ; qtot 177.212922
 3984         hx    178    ccc     H2   3984 0.04213200   1.008000   ; qtot 177.255054
 3985         c3    178    ccc     C2   3985 -0.04496700  12.010000   ; qtot 177.210087
 3986         hc    178    ccc     H3   3986 0.02647500   1.008000   ; qtot 177.236562
 3987         hc    178    ccc     H4   3987 0.02647500   1.008000   ; qtot 177.263037
 3988         c3    178    ccc     C3   3988 0.04732600  12.010000   ; qtot 177.310363
 3989         h1    178    ccc     H5   3989 0.07030200   1.008000   ; qtot 177.380665
 3990         h1    178    ccc     H6   3990 0.07030200   1.008000   ; qtot 177.450967
 3991         n4    178    ccc     N1   3991 -0.21077700  14.010000   ; qtot 177.240190
 3992         hn    178    ccc     H7   3992 0.28399900   1.008000   ; qtot 177.524189
 3993         hn    178    ccc     H8   3993 0.28399900   1.008000   ; qtot 177.808188
 3994         os    178    ccc     O1   3994 -0.09200600  16.000000   ; qtot 177.716182
 3995         hn    178    ccc    H17   3995 0.28399900   1.008000   ; qtot 178.000181
; residue  179 ccc rtp ccc q 1.0
 3996         c3    179    ccc     C1   3996 0.17060900  12.010000   ; qtot 178.170790
 3997         hx    179    ccc     H1   3997 0.04213200   1.008000   ; qtot 178.212922
 3998         hx    179    ccc     H2   3998 0.04213200   1.008000   ; qtot 178.255054
 3999         c3    179    ccc     C2   3999 -0.04496700  12.010000   ; qtot 178.210087
 4000         hc    179    ccc     H3   4000 0.02647500   1.008000   ; qtot 178.236562
 4001         hc    179    ccc     H4   4001 0.02647500   1.008000   ; qtot 178.263037
 4002         c3    179    ccc     C3   4002 0.04732600  12.010000   ; qtot 178.310363
 4003         h1    179    ccc     H5   4003 0.07030200   1.008000   ; qtot 178.380665
 4004         h1    179    ccc     H6   4004 0.07030200   1.008000   ; qtot 178.450967
 4005         n4    179    ccc     N1   4005 -0.21077700  14.010000   ; qtot 178.240190
 4006         hn    179    ccc     H7   4006 0.28399900   1.008000   ; qtot 178.524189
 4007         hn    179    ccc     H8   4007 0.28399900   1.008000   ; qtot 178.808188
 4008         os    179    ccc     O1   4008 -0.09200600  16.000000   ; qtot 178.716182
 4009         hn    179    ccc    H17   4009 0.28399900   1.008000   ; qtot 179.000181
; residue  180 ccc rtp ccc q 1.0
 4010         c3    180    ccc     C1   4010 0.17060900  12.010000   ; qtot 179.170790
 4011         hx    180    ccc     H1   4011 0.04213200   1.008000   ; qtot 179.212922
 4012         hx    180    ccc     H2   4012 0.04213200   1.008000   ; qtot 179.255054
 4013         c3    180    ccc     C2   4013 -0.04496700  12.010000   ; qtot 179.210087
 4014         hc    180    ccc     H3   4014 0.02647500   1.008000   ; qtot 179.236562
 4015         hc    180    ccc     H4   4015 0.02647500   1.008000   ; qtot 179.263037
 4016         c3    180    ccc     C3   4016 0.04732600  12.010000   ; qtot 179.310363
 4017         h1    180    ccc     H5   4017 0.07030200   1.008000   ; qtot 179.380665
 4018         h1    180    ccc     H6   4018 0.07030200   1.008000   ; qtot 179.450967
 4019         n4    180    ccc     N1   4019 -0.21077700  14.010000   ; qtot 179.240190
 4020         hn    180    ccc     H7   4020 0.28399900   1.008000   ; qtot 179.524189
 4021         hn    180    ccc     H8   4021 0.28399900   1.008000   ; qtot 179.808188
 4022         os    180    ccc     O1   4022 -0.09200600  16.000000   ; qtot 179.716182
 4023         hn    180    ccc    H17   4023 0.28399900   1.008000   ; qtot 180.000181
; residue  181 ccc rtp ccc q 1.0
 4024         c3    181    ccc     C1   4024 0.17060900  12.010000   ; qtot 180.170790
 4025         hx    181    ccc     H1   4025 0.04213200   1.008000   ; qtot 180.212922
 4026         hx    181    ccc     H2   4026 0.04213200   1.008000   ; qtot 180.255054
 4027         c3    181    ccc     C2   4027 -0.04496700  12.010000   ; qtot 180.210087
 4028         hc    181    ccc     H3   4028 0.02647500   1.008000   ; qtot 180.236562
 4029         hc    181    ccc     H4   4029 0.02647500   1.008000   ; qtot 180.263037
 4030         c3    181    ccc     C3   4030 0.04732600  12.010000   ; qtot 180.310363
 4031         h1    181    ccc     H5   4031 0.07030200   1.008000   ; qtot 180.380665
 4032         h1    181    ccc     H6   4032 0.07030200   1.008000   ; qtot 180.450967
 4033         n4    181    ccc     N1   4033 -0.21077700  14.010000   ; qtot 180.240190
 4034         hn    181    ccc     H7   4034 0.28399900   1.008000   ; qtot 180.524189
 4035         hn    181    ccc     H8   4035 0.28399900   1.008000   ; qtot 180.808188
 4036         os    181    ccc     O1   4036 -0.09200600  16.000000   ; qtot 180.716182
 4037         hn    181    ccc    H17   4037 0.28399900   1.008000   ; qtot 181.000181
; residue  182 ccc rtp ccc q 1.0
 4038         c3    182    ccc     C1   4038 0.17060900  12.010000   ; qtot 181.170790
 4039         hx    182    ccc     H1   4039 0.04213200   1.008000   ; qtot 181.212922
 4040         hx    182    ccc     H2   4040 0.04213200   1.008000   ; qtot 181.255054
 4041         c3    182    ccc     C2   4041 -0.04496700  12.010000   ; qtot 181.210087
 4042         hc    182    ccc     H3   4042 0.02647500   1.008000   ; qtot 181.236562
 4043         hc    182    ccc     H4   4043 0.02647500   1.008000   ; qtot 181.263037
 4044         c3    182    ccc     C3   4044 0.04732600  12.010000   ; qtot 181.310363
 4045         h1    182    ccc     H5   4045 0.07030200   1.008000   ; qtot 181.380665
 4046         h1    182    ccc     H6   4046 0.07030200   1.008000   ; qtot 181.450967
 4047         n4    182    ccc     N1   4047 -0.21077700  14.010000   ; qtot 181.240190
 4048         hn    182    ccc     H7   4048 0.28399900   1.008000   ; qtot 181.524189
 4049         hn    182    ccc     H8   4049 0.28399900   1.008000   ; qtot 181.808188
 4050         os    182    ccc     O1   4050 -0.09200600  16.000000   ; qtot 181.716182
 4051         hn    182    ccc    H17   4051 0.28399900   1.008000   ; qtot 182.000181
; residue  183 ccc rtp ccc q 1.0
 4052         c3    183    ccc     C1   4052 0.17060900  12.010000   ; qtot 182.170790
 4053         hx    183    ccc     H1   4053 0.04213200   1.008000   ; qtot 182.212922
 4054         hx    183    ccc     H2   4054 0.04213200   1.008000   ; qtot 182.255054
 4055         c3    183    ccc     C2   4055 -0.04496700  12.010000   ; qtot 182.210087
 4056         hc    183    ccc     H3   4056 0.02647500   1.008000   ; qtot 182.236562
 4057         hc    183    ccc     H4   4057 0.02647500   1.008000   ; qtot 182.263037
 4058         c3    183    ccc     C3   4058 0.04732600  12.010000   ; qtot 182.310363
 4059         h1    183    ccc     H5   4059 0.07030200   1.008000   ; qtot 182.380665
 4060         h1    183    ccc     H6   4060 0.07030200   1.008000   ; qtot 182.450967
 4061         n4    183    ccc     N1   4061 -0.21077700  14.010000   ; qtot 182.240190
 4062         hn    183    ccc     H7   4062 0.28399900   1.008000   ; qtot 182.524189
 4063         hn    183    ccc     H8   4063 0.28399900   1.008000   ; qtot 182.808188
 4064         os    183    ccc     O1   4064 -0.09200600  16.000000   ; qtot 182.716182
 4065         hn    183    ccc    H17   4065 0.28399900   1.008000   ; qtot 183.000181
; residue  184 ccc rtp ccc q 1.0
 4066         c3    184    ccc     C1   4066 0.17060900  12.010000   ; qtot 183.170790
 4067         hx    184    ccc     H1   4067 0.04213200   1.008000   ; qtot 183.212922
 4068         hx    184    ccc     H2   4068 0.04213200   1.008000   ; qtot 183.255054
 4069         c3    184    ccc     C2   4069 -0.04496700  12.010000   ; qtot 183.210087
 4070         hc    184    ccc     H3   4070 0.02647500   1.008000   ; qtot 183.236562
 4071         hc    184    ccc     H4   4071 0.02647500   1.008000   ; qtot 183.263037
 4072         c3    184    ccc     C3   4072 0.04732600  12.010000   ; qtot 183.310363
 4073         h1    184    ccc     H5   4073 0.07030200   1.008000   ; qtot 183.380665
 4074         h1    184    ccc     H6   4074 0.07030200   1.008000   ; qtot 183.450967
 4075         n4    184    ccc     N1   4075 -0.21077700  14.010000   ; qtot 183.240190
 4076         hn    184    ccc     H7   4076 0.28399900   1.008000   ; qtot 183.524189
 4077         hn    184    ccc     H8   4077 0.28399900   1.008000   ; qtot 183.808188
 4078         os    184    ccc     O1   4078 -0.09200600  16.000000   ; qtot 183.716182
 4079         hn    184    ccc    H17   4079 0.28399900   1.008000   ; qtot 184.000181
; residue  185 ccc rtp ccc q 1.0
 4080         c3    185    ccc     C1   4080 0.17060900  12.010000   ; qtot 184.170790
 4081         hx    185    ccc     H1   4081 0.04213200   1.008000   ; qtot 184.212922
 4082         hx    185    ccc     H2   4082 0.04213200   1.008000   ; qtot 184.255054
 4083         c3    185    ccc     C2   4083 -0.04496700  12.010000   ; qtot 184.210087
 4084         hc    185    ccc     H3   4084 0.02647500   1.008000   ; qtot 184.236562
 4085         hc    185    ccc     H4   4085 0.02647500   1.008000   ; qtot 184.263037
 4086         c3    185    ccc     C3   4086 0.04732600  12.010000   ; qtot 184.310363
 4087         h1    185    ccc     H5   4087 0.07030200   1.008000   ; qtot 184.380665
 4088         h1    185    ccc     H6   4088 0.07030200   1.008000   ; qtot 184.450967
 4089         n4    185    ccc     N1   4089 -0.21077700  14.010000   ; qtot 184.240190
 4090         hn    185    ccc     H7   4090 0.28399900   1.008000   ; qtot 184.524189
 4091         hn    185    ccc     H8   4091 0.28399900   1.008000   ; qtot 184.808188
 4092         os    185    ccc     O1   4092 -0.09200600  16.000000   ; qtot 184.716182
 4093         hn    185    ccc    H17   4093 0.28399900   1.008000   ; qtot 185.000181
; residue  186 ccc rtp ccc q 1.0
 4094         c3    186    ccc     C1   4094 0.17060900  12.010000   ; qtot 185.170790
 4095         hx    186    ccc     H1   4095 0.04213200   1.008000   ; qtot 185.212922
 4096         hx    186    ccc     H2   4096 0.04213200   1.008000   ; qtot 185.255054
 4097         c3    186    ccc     C2   4097 -0.04496700  12.010000   ; qtot 185.210087
 4098         hc    186    ccc     H3   4098 0.02647500   1.008000   ; qtot 185.236562
 4099         hc    186    ccc     H4   4099 0.02647500   1.008000   ; qtot 185.263037
 4100         c3    186    ccc     C3   4100 0.04732600  12.010000   ; qtot 185.310363
 4101         h1    186    ccc     H5   4101 0.07030200   1.008000   ; qtot 185.380665
 4102         h1    186    ccc     H6   4102 0.07030200   1.008000   ; qtot 185.450967
 4103         n4    186    ccc     N1   4103 -0.21077700  14.010000   ; qtot 185.240190
 4104         hn    186    ccc     H7   4104 0.28399900   1.008000   ; qtot 185.524189
 4105         hn    186    ccc     H8   4105 0.28399900   1.008000   ; qtot 185.808188
 4106         os    186    ccc     O1   4106 -0.09200600  16.000000   ; qtot 185.716182
 4107         hn    186    ccc    H17   4107 0.28399900   1.008000   ; qtot 186.000181
; residue  187 ccc rtp ccc q 1.0
 4108         c3    187    ccc     C1   4108 0.17060900  12.010000   ; qtot 186.170790
 4109         hx    187    ccc     H1   4109 0.04213200   1.008000   ; qtot 186.212922
 4110         hx    187    ccc     H2   4110 0.04213200   1.008000   ; qtot 186.255054
 4111         c3    187    ccc     C2   4111 -0.04496700  12.010000   ; qtot 186.210087
 4112         hc    187    ccc     H3   4112 0.02647500   1.008000   ; qtot 186.236562
 4113         hc    187    ccc     H4   4113 0.02647500   1.008000   ; qtot 186.263037
 4114         c3    187    ccc     C3   4114 0.04732600  12.010000   ; qtot 186.310363
 4115         h1    187    ccc     H5   4115 0.07030200   1.008000   ; qtot 186.380665
 4116         h1    187    ccc     H6   4116 0.07030200   1.008000   ; qtot 186.450967
 4117         n4    187    ccc     N1   4117 -0.21077700  14.010000   ; qtot 186.240190
 4118         hn    187    ccc     H7   4118 0.28399900   1.008000   ; qtot 186.524189
 4119         hn    187    ccc     H8   4119 0.28399900   1.008000   ; qtot 186.808188
 4120         os    187    ccc     O1   4120 -0.09200600  16.000000   ; qtot 186.716182
 4121         hn    187    ccc    H17   4121 0.28399900   1.008000   ; qtot 187.000181
; residue  188 ccc rtp ccc q 1.0
 4122         c3    188    ccc     C1   4122 0.17060900  12.010000   ; qtot 187.170790
 4123         hx    188    ccc     H1   4123 0.04213200   1.008000   ; qtot 187.212922
 4124         hx    188    ccc     H2   4124 0.04213200   1.008000   ; qtot 187.255054
 4125         c3    188    ccc     C2   4125 -0.04496700  12.010000   ; qtot 187.210087
 4126         hc    188    ccc     H3   4126 0.02647500   1.008000   ; qtot 187.236562
 4127         hc    188    ccc     H4   4127 0.02647500   1.008000   ; qtot 187.263037
 4128         c3    188    ccc     C3   4128 0.04732600  12.010000   ; qtot 187.310363
 4129         h1    188    ccc     H5   4129 0.07030200   1.008000   ; qtot 187.380665
 4130         h1    188    ccc     H6   4130 0.07030200   1.008000   ; qtot 187.450967
 4131         n4    188    ccc     N1   4131 -0.21077700  14.010000   ; qtot 187.240190
 4132         hn    188    ccc     H7   4132 0.28399900   1.008000   ; qtot 187.524189
 4133         hn    188    ccc     H8   4133 0.28399900   1.008000   ; qtot 187.808188
 4134         os    188    ccc     O1   4134 -0.09200600  16.000000   ; qtot 187.716182
 4135         hn    188    ccc    H17   4135 0.28399900   1.008000   ; qtot 188.000181
; residue  189 ccc rtp ccc q 1.0
 4136         c3    189    ccc     C1   4136 0.17060900  12.010000   ; qtot 188.170790
 4137         hx    189    ccc     H1   4137 0.04213200   1.008000   ; qtot 188.212922
 4138         hx    189    ccc     H2   4138 0.04213200   1.008000   ; qtot 188.255054
 4139         c3    189    ccc     C2   4139 -0.04496700  12.010000   ; qtot 188.210087
 4140         hc    189    ccc     H3   4140 0.02647500   1.008000   ; qtot 188.236562
 4141         hc    189    ccc     H4   4141 0.02647500   1.008000   ; qtot 188.263037
 4142         c3    189    ccc     C3   4142 0.04732600  12.010000   ; qtot 188.310363
 4143         h1    189    ccc     H5   4143 0.07030200   1.008000   ; qtot 188.380665
 4144         h1    189    ccc     H6   4144 0.07030200   1.008000   ; qtot 188.450967
 4145         n4    189    ccc     N1   4145 -0.21077700  14.010000   ; qtot 188.240190
 4146         hn    189    ccc     H7   4146 0.28399900   1.008000   ; qtot 188.524189
 4147         hn    189    ccc     H8   4147 0.28399900   1.008000   ; qtot 188.808188
 4148         os    189    ccc     O1   4148 -0.09200600  16.000000   ; qtot 188.716182
 4149         hn    189    ccc    H17   4149 0.28399900   1.008000   ; qtot 189.000181
; residue  190 ccc rtp ccc q 1.0
 4150         c3    190    ccc     C1   4150 0.17060900  12.010000   ; qtot 189.170790
 4151         hx    190    ccc     H1   4151 0.04213200   1.008000   ; qtot 189.212922
 4152         hx    190    ccc     H2   4152 0.04213200   1.008000   ; qtot 189.255054
 4153         c3    190    ccc     C2   4153 -0.04496700  12.010000   ; qtot 189.210087
 4154         hc    190    ccc     H3   4154 0.02647500   1.008000   ; qtot 189.236562
 4155         hc    190    ccc     H4   4155 0.02647500   1.008000   ; qtot 189.263037
 4156         c3    190    ccc     C3   4156 0.04732600  12.010000   ; qtot 189.310363
 4157         h1    190    ccc     H5   4157 0.07030200   1.008000   ; qtot 189.380665
 4158         h1    190    ccc     H6   4158 0.07030200   1.008000   ; qtot 189.450967
 4159         n4    190    ccc     N1   4159 -0.21077700  14.010000   ; qtot 189.240190
 4160         hn    190    ccc     H7   4160 0.28399900   1.008000   ; qtot 189.524189
 4161         hn    190    ccc     H8   4161 0.28399900   1.008000   ; qtot 189.808188
 4162         os    190    ccc     O1   4162 -0.09200600  16.000000   ; qtot 189.716182
 4163         hn    190    ccc    H17   4163 0.28399900   1.008000   ; qtot 190.000181

[ bonds ]
;    ai     aj funct         c0         c1         c2         c3
      1      2     1   0.15110 237065.440000
      1      5     1   0.15110 237065.440000
      1      8     1   0.15110 237065.440000
      2     14     1   0.15375 251793.120000
      5     17     1   0.15375 251793.120000
      8     11     1   0.15375 251793.120000
     11     23     1   0.15375 251793.120000
     14     26     1   0.15375 251793.120000
     17     20     1   0.15375 251793.120000
     20     58     1   0.14316 258236.480000
     23     88     1   0.14316 258236.480000
     26    118     1   0.14316 258236.480000
     30     31     1   0.15110 237065.440000
     30     34     1   0.15110 237065.440000
     30     37     1   0.15110 237065.440000
     31     43     1   0.15375 251793.120000
     34     46     1   0.15375 251793.120000
     37     40     1   0.15375 251793.120000
     40     49     1   0.15375 251793.120000
     43     55     1   0.15375 251793.120000
     46     52     1   0.15375 251793.120000
     49     58     1   0.14316 258236.480000
     52    148     1   0.14316 258236.480000
     55    178     1   0.14316 258236.480000
     60     61     1   0.15110 237065.440000
     60     64     1   0.15110 237065.440000
     60     67     1   0.15110 237065.440000
     61     73     1   0.15375 251793.120000
     64     76     1   0.15375 251793.120000
     67     70     1   0.15375 251793.120000
     70     79     1   0.15375 251793.120000
     73     85     1   0.15375 251793.120000
     76     82     1   0.15375 251793.120000
     79     88     1   0.14316 258236.480000
     82    208     1   0.14316 258236.480000
     85    238     1   0.14316 258236.480000
     90     91     1   0.15110 237065.440000
     90     94     1   0.15110 237065.440000
     90     97     1   0.15110 237065.440000
     91    103     1   0.15375 251793.120000
     94    106     1   0.15375 251793.120000
     97    100     1   0.15375 251793.120000
    100    109     1   0.15375 251793.120000
    103    115     1   0.15375 251793.120000
    106    112     1   0.15375 251793.120000
    109    118     1   0.14316 258236.480000
    112    268     1   0.14316 258236.480000
    115    298     1   0.14316 258236.480000
    120    121     1   0.15110 237065.440000
    120    124     1   0.15110 237065.440000
    120    127     1   0.15110 237065.440000
    121    133     1   0.15375 251793.120000
    124    136     1   0.15375 251793.120000
    127    130     1   0.15375 251793.120000
    130    139     1   0.15375 251793.120000
    133    145     1   0.15375 251793.120000
    136    142     1   0.15375 251793.120000
    139    148     1   0.14316 258236.480000
    142    328     1   0.14316 258236.480000
    145    358     1   0.14316 258236.480000
    150    151     1   0.15110 237065.440000
    150    154     1   0.15110 237065.440000
    150    157     1   0.15110 237065.440000
    151    163     1   0.15375 251793.120000
    154    166     1   0.15375 251793.120000
    157    160     1   0.15375 251793.120000
    160    169     1   0.15375 251793.120000
    163    175     1   0.15375 251793.120000
    166    172     1   0.15375 251793.120000
    169    178     1   0.14316 258236.480000
    172    388     1   0.14316 258236.480000
    175    418     1   0.14316 258236.480000
    180    181     1   0.15110 237065.440000
    180    184     1   0.15110 237065.440000
    180    187     1   0.15110 237065.440000
    181    193     1   0.15375 251793.120000
    184    196     1   0.15375 251793.120000
    187    190     1   0.15375 251793.120000
    190    199     1   0.15375 251793.120000
    193    205     1   0.15375 251793.120000
    196    202     1   0.15375 251793.120000
    199    208     1   0.14316 258236.480000
    202    448     1   0.14316 258236.480000
    205    478     1   0.14316 258236.480000
    210    211     1   0.15110 237065.440000
    210    214     1   0.15110 237065.440000
    210    217     1   0.15110 237065.440000
    211    223     1   0.15375 251793.120000
    214    226     1   0.15375 251793.120000
    217    220     1   0.15375 251793.120000
    220    229     1   0.15375 251793.120000
    223    235     1   0.15375 251793.120000
    226    232     1   0.15375 251793.120000
    229    238     1   0.14316 258236.480000
    232    508     1   0.14316 258236.480000
    235    538     1   0.14316 258236.480000
    240    241     1   0.15110 237065.440000
    240    244     1   0.15110 237065.440000
    240    247     1   0.15110 237065.440000
    241    253     1   0.15375 251793.120000
    244    256     1   0.15375 251793.120000
    247    250     1   0.15375 251793.120000
    250    259     1   0.15375 251793.120000
    253    265     1   0.15375 251793.120000
    256    262     1   0.15375 251793.120000
    259    268     1   0.14316 258236.480000
    262    568     1   0.14316 258236.480000
    265    598     1   0.14316 258236.480000
    270    271     1   0.15110 237065.440000
    270    274     1   0.15110 237065.440000
    270    277     1   0.15110 237065.440000
    271    283     1   0.15375 251793.120000
    274    286     1   0.15375 251793.120000
    277    280     1   0.15375 251793.120000
    280    289     1   0.15375 251793.120000
    283    295     1   0.15375 251793.120000
    286    292     1   0.15375 251793.120000
    289    298     1   0.14316 258236.480000
    292    628     1   0.14316 258236.480000
    295    658     1   0.14316 258236.480000
    300    301     1   0.15110 237065.440000
    300    304     1   0.15110 237065.440000
    300    307     1   0.15110 237065.440000
    301    313     1   0.15375 251793.120000
    304    316     1   0.15375 251793.120000
    307    310     1   0.15375 251793.120000
    310    319     1   0.15375 251793.120000
    313    325     1   0.15375 251793.120000
    316    322     1   0.15375 251793.120000
    319    328     1   0.14316 258236.480000
    322    688     1   0.14316 258236.480000
    325    718     1   0.14316 258236.480000
    330    331     1   0.15110 237065.440000
    330    334     1   0.15110 237065.440000
    330    337     1   0.15110 237065.440000
    331    343     1   0.15375 251793.120000
    334    346     1   0.15375 251793.120000
    337    340     1   0.15375 251793.120000
    340    349     1   0.15375 251793.120000
    343    355     1   0.15375 251793.120000
    346    352     1   0.15375 251793.120000
    349    358     1   0.14316 258236.480000
    352    748     1   0.14316 258236.480000
    355    778     1   0.14316 258236.480000
    360    361     1   0.15110 237065.440000
    360    364     1   0.15110 237065.440000
    360    367     1   0.15110 237065.440000
    361    373     1   0.15375 251793.120000
    364    376     1   0.15375 251793.120000
    367    370     1   0.15375 251793.120000
    370    379     1   0.15375 251793.120000
    373    385     1   0.15375 251793.120000
    376    382     1   0.15375 251793.120000
    379    388     1   0.14316 258236.480000
    382    808     1   0.14316 258236.480000
    385    838     1   0.14316 258236.480000
    390    391     1   0.15110 237065.440000
    390    394     1   0.15110 237065.440000
    390    397     1   0.15110 237065.440000
    391    403     1   0.15375 251793.120000
    394    406     1   0.15375 251793.120000
    397    400     1   0.15375 251793.120000
    400    409     1   0.15375 251793.120000
    403    415     1   0.15375 251793.120000
    406    412     1   0.15375 251793.120000
    409    418     1   0.14316 258236.480000
    412    868     1   0.14316 258236.480000
    415    898     1   0.14316 258236.480000
    420    421     1   0.15110 237065.440000
    420    424     1   0.15110 237065.440000
    420    427     1   0.15110 237065.440000
    421    433     1   0.15375 251793.120000
    424    436     1   0.15375 251793.120000
    427    430     1   0.15375 251793.120000
    430    439     1   0.15375 251793.120000
    433    445     1   0.15375 251793.120000
    436    442     1   0.15375 251793.120000
    439    448     1   0.14316 258236.480000
    442    928     1   0.14316 258236.480000
    445    958     1   0.14316 258236.480000
    450    451     1   0.15110 237065.440000
    450    454     1   0.15110 237065.440000
    450    457     1   0.15110 237065.440000
    451    463     1   0.15375 251793.120000
    454    466     1   0.15375 251793.120000
    457    460     1   0.15375 251793.120000
    460    469     1   0.15375 251793.120000
    463    475     1   0.15375 251793.120000
    466    472     1   0.15375 251793.120000
    469    478     1   0.14316 258236.480000
    472    988     1   0.14316 258236.480000
    475   1018     1   0.14316 258236.480000
    480    481     1   0.15110 237065.440000
    480    484     1   0.15110 237065.440000
    480    487     1   0.15110 237065.440000
    481    493     1   0.15375 251793.120000
    484    496     1   0.15375 251793.120000
    487    490     1   0.15375 251793.120000
    490    499     1   0.15375 251793.120000
    493    505     1   0.15375 251793.120000
    496    502     1   0.15375 251793.120000
    499    508     1   0.14316 258236.480000
    502   1048     1   0.14316 258236.480000
    505   1078     1   0.14316 258236.480000
    510    511     1   0.15110 237065.440000
    510    514     1   0.15110 237065.440000
    510    517     1   0.15110 237065.440000
    511    523     1   0.15375 251793.120000
    514    526     1   0.15375 251793.120000
    517    520     1   0.15375 251793.120000
    520    529     1   0.15375 251793.120000
    523    535     1   0.15375 251793.120000
    526    532     1   0.15375 251793.120000
    529    538     1   0.14316 258236.480000
    532   1108     1   0.14316 258236.480000
    535   1138     1   0.14316 258236.480000
    540    541     1   0.15110 237065.440000
    540    544     1   0.15110 237065.440000
    540    547     1   0.15110 237065.440000
    541    553     1   0.15375 251793.120000
    544    556     1   0.15375 251793.120000
    547    550     1   0.15375 251793.120000
    550    559     1   0.15375 251793.120000
    553    565     1   0.15375 251793.120000
    556    562     1   0.15375 251793.120000
    559    568     1   0.14316 258236.480000
    562   1168     1   0.14316 258236.480000
    565   1198     1   0.14316 258236.480000
    570    571     1   0.15110 237065.440000
    570    574     1   0.15110 237065.440000
    570    577     1   0.15110 237065.440000
    571    583     1   0.15375 251793.120000
    574    586     1   0.15375 251793.120000
    577    580     1   0.15375 251793.120000
    580    589     1   0.15375 251793.120000
    583    595     1   0.15375 251793.120000
    586    592     1   0.15375 251793.120000
    589    598     1   0.14316 258236.480000
    592   1228     1   0.14316 258236.480000
    595   1258     1   0.14316 258236.480000
    600    601     1   0.15110 237065.440000
    600    604     1   0.15110 237065.440000
    600    607     1   0.15110 237065.440000
    601    613     1   0.15375 251793.120000
    604    616     1   0.15375 251793.120000
    607    610     1   0.15375 251793.120000
    610    619     1   0.15375 251793.120000
    613    625     1   0.15375 251793.120000
    616    622     1   0.15375 251793.120000
    619    628     1   0.14316 258236.480000
    622   1288     1   0.14316 258236.480000
    625   1318     1   0.14316 258236.480000
    630    631     1   0.15110 237065.440000
    630    634     1   0.15110 237065.440000
    630    637     1   0.15110 237065.440000
    631    643     1   0.15375 251793.120000
    634    646     1   0.15375 251793.120000
    637    640     1   0.15375 251793.120000
    640    649     1   0.15375 251793.120000
    643    655     1   0.15375 251793.120000
    646    652     1   0.15375 251793.120000
    649    658     1   0.14316 258236.480000
    652   1348     1   0.14316 258236.480000
    655   1378     1   0.14316 258236.480000
    660    661     1   0.15110 237065.440000
    660    664     1   0.15110 237065.440000
    660    667     1   0.15110 237065.440000
    661    673     1   0.15375 251793.120000
    664    676     1   0.15375 251793.120000
    667    670     1   0.15375 251793.120000
    670    679     1   0.15375 251793.120000
    673    685     1   0.15375 251793.120000
    676    682     1   0.15375 251793.120000
    679    688     1   0.14316 258236.480000
    682   1408     1   0.14316 258236.480000
    685   1438     1   0.14316 258236.480000
    690    691     1   0.15110 237065.440000
    690    694     1   0.15110 237065.440000
    690    697     1   0.15110 237065.440000
    691    703     1   0.15375 251793.120000
    694    706     1   0.15375 251793.120000
    697    700     1   0.15375 251793.120000
    700    709     1   0.15375 251793.120000
    703    715     1   0.15375 251793.120000
    706    712     1   0.15375 251793.120000
    709    718     1   0.14316 258236.480000
    712   1468     1   0.14316 258236.480000
    715   1498     1   0.14316 258236.480000
    720    721     1   0.15110 237065.440000
    720    724     1   0.15110 237065.440000
    720    727     1   0.15110 237065.440000
    721    733     1   0.15375 251793.120000
    724    736     1   0.15375 251793.120000
    727    730     1   0.15375 251793.120000
    730    739     1   0.15375 251793.120000
    733    745     1   0.15375 251793.120000
    736    742     1   0.15375 251793.120000
    739    748     1   0.14316 258236.480000
    742   1528     1   0.14316 258236.480000
    745   1558     1   0.14316 258236.480000
    750    751     1   0.15110 237065.440000
    750    754     1   0.15110 237065.440000
    750    757     1   0.15110 237065.440000
    751    763     1   0.15375 251793.120000
    754    766     1   0.15375 251793.120000
    757    760     1   0.15375 251793.120000
    760    769     1   0.15375 251793.120000
    763    775     1   0.15375 251793.120000
    766    772     1   0.15375 251793.120000
    769    778     1   0.14316 258236.480000
    772   1588     1   0.14316 258236.480000
    775   1618     1   0.14316 258236.480000
    780    781     1   0.15110 237065.440000
    780    784     1   0.15110 237065.440000
    780    787     1   0.15110 237065.440000
    781    793     1   0.15375 251793.120000
    784    796     1   0.15375 251793.120000
    787    790     1   0.15375 251793.120000
    790    799     1   0.15375 251793.120000
    793    805     1   0.15375 251793.120000
    796    802     1   0.15375 251793.120000
    799    808     1   0.14316 258236.480000
    802   1648     1   0.14316 258236.480000
    805   1678     1   0.14316 258236.480000
    810    811     1   0.15110 237065.440000
    810    814     1   0.15110 237065.440000
    810    817     1   0.15110 237065.440000
    811    823     1   0.15375 251793.120000
    814    826     1   0.15375 251793.120000
    817    820     1   0.15375 251793.120000
    820    829     1   0.15375 251793.120000
    823    835     1   0.15375 251793.120000
    826    832     1   0.15375 251793.120000
    829    838     1   0.14316 258236.480000
    832   1708     1   0.14316 258236.480000
    835   1738     1   0.14316 258236.480000
    840    841     1   0.15110 237065.440000
    840    844     1   0.15110 237065.440000
    840    847     1   0.15110 237065.440000
    841    853     1   0.15375 251793.120000
    844    856     1   0.15375 251793.120000
    847    850     1   0.15375 251793.120000
    850    859     1   0.15375 251793.120000
    853    865     1   0.15375 251793.120000
    856    862     1   0.15375 251793.120000
    859    868     1   0.14316 258236.480000
    862   1768     1   0.14316 258236.480000
    865   1798     1   0.14316 258236.480000
    870    871     1   0.15110 237065.440000
    870    874     1   0.15110 237065.440000
    870    877     1   0.15110 237065.440000
    871    883     1   0.15375 251793.120000
    874    886     1   0.15375 251793.120000
    877    880     1   0.15375 251793.120000
    880    889     1   0.15375 251793.120000
    883    895     1   0.15375 251793.120000
    886    892     1   0.15375 251793.120000
    889    898     1   0.14316 258236.480000
    892   1828     1   0.14316 258236.480000
    895   1858     1   0.14316 258236.480000
    900    901     1   0.15110 237065.440000
    900    904     1   0.15110 237065.440000
    900    907     1   0.15110 237065.440000
    901    913     1   0.15375 251793.120000
    904    916     1   0.15375 251793.120000
    907    910     1   0.15375 251793.120000
    910    919     1   0.15375 251793.120000
    913    925     1   0.15375 251793.120000
    916    922     1   0.15375 251793.120000
    919    928     1   0.14316 258236.480000
    922   1888     1   0.14316 258236.480000
    925   1918     1   0.14316 258236.480000
    930    931     1   0.15110 237065.440000
    930    934     1   0.15110 237065.440000
    930    937     1   0.15110 237065.440000
    931    943     1   0.15375 251793.120000
    934    946     1   0.15375 251793.120000
    937    940     1   0.15375 251793.120000
    940    949     1   0.15375 251793.120000
    943    955     1   0.15375 251793.120000
    946    952     1   0.15375 251793.120000
    949    958     1   0.14316 258236.480000
    952   1948     1   0.14316 258236.480000
    955   1978     1   0.14316 258236.480000
    960    961     1   0.15110 237065.440000
    960    964     1   0.15110 237065.440000
    960    967     1   0.15110 237065.440000
    961    973     1   0.15375 251793.120000
    964    976     1   0.15375 251793.120000
    967    970     1   0.15375 251793.120000
    970    979     1   0.15375 251793.120000
    973    985     1   0.15375 251793.120000
    976    982     1   0.15375 251793.120000
    979    988     1   0.14316 258236.480000
    982   2008     1   0.14316 258236.480000
    985   2038     1   0.14316 258236.480000
    990    991     1   0.15110 237065.440000
    990    994     1   0.15110 237065.440000
    990    997     1   0.15110 237065.440000
    991   1003     1   0.15375 251793.120000
    994   1006     1   0.15375 251793.120000
    997   1000     1   0.15375 251793.120000
   1000   1009     1   0.15375 251793.120000
   1003   1015     1   0.15375 251793.120000
   1006   1012     1   0.15375 251793.120000
   1009   1018     1   0.14316 258236.480000
   1012   2068     1   0.14316 258236.480000
   1015   2098     1   0.14316 258236.480000
   1020   1021     1   0.15110 237065.440000
   1020   1024     1   0.15110 237065.440000
   1020   1027     1   0.15110 237065.440000
   1021   1033     1   0.15375 251793.120000
   1024   1036     1   0.15375 251793.120000
   1027   1030     1   0.15375 251793.120000
   1030   1039     1   0.15375 251793.120000
   1033   1045     1   0.15375 251793.120000
   1036   1042     1   0.15375 251793.120000
   1039   1048     1   0.14316 258236.480000
   1042   2128     1   0.14316 258236.480000
   1045   2158     1   0.14316 258236.480000
   1050   1051     1   0.15110 237065.440000
   1050   1054     1   0.15110 237065.440000
   1050   1057     1   0.15110 237065.440000
   1051   1063     1   0.15375 251793.120000
   1054   1066     1   0.15375 251793.120000
   1057   1060     1   0.15375 251793.120000
   1060   1069     1   0.15375 251793.120000
   1063   1075     1   0.15375 251793.120000
   1066   1072     1   0.15375 251793.120000
   1069   1078     1   0.14316 258236.480000
   1072   2188     1   0.14316 258236.480000
   1075   2218     1   0.14316 258236.480000
   1080   1081     1   0.15110 237065.440000
   1080   1084     1   0.15110 237065.440000
   1080   1087     1   0.15110 237065.440000
   1081   1093     1   0.15375 251793.120000
   1084   1096     1   0.15375 251793.120000
   1087   1090     1   0.15375 251793.120000
   1090   1099     1   0.15375 251793.120000
   1093   1105     1   0.15375 251793.120000
   1096   1102     1   0.15375 251793.120000
   1099   1108     1   0.14316 258236.480000
   1102   2248     1   0.14316 258236.480000
   1105   2278     1   0.14316 258236.480000
   1110   1111     1   0.15110 237065.440000
   1110   1114     1   0.15110 237065.440000
   1110   1117     1   0.15110 237065.440000
   1111   1123     1   0.15375 251793.120000
   1114   1126     1   0.15375 251793.120000
   1117   1120     1   0.15375 251793.120000
   1120   1129     1   0.15375 251793.120000
   1123   1135     1   0.15375 251793.120000
   1126   1132     1   0.15375 251793.120000
   1129   1138     1   0.14316 258236.480000
   1132   2308     1   0.14316 258236.480000
   1135   2338     1   0.14316 258236.480000
   1140   1141     1   0.15110 237065.440000
   1140   1144     1   0.15110 237065.440000
   1140   1147     1   0.15110 237065.440000
   1141   1153     1   0.15375 251793.120000
   1144   1156     1   0.15375 251793.120000
   1147   1150     1   0.15375 251793.120000
   1150   1159     1   0.15375 251793.120000
   1153   1165     1   0.15375 251793.120000
   1156   1162     1   0.15375 251793.120000
   1159   1168     1   0.14316 258236.480000
   1162   2368     1   0.14316 258236.480000
   1165   2398     1   0.14316 258236.480000
   1170   1171     1   0.15110 237065.440000
   1170   1174     1   0.15110 237065.440000
   1170   1177     1   0.15110 237065.440000
   1171   1183     1   0.15375 251793.120000
   1174   1186     1   0.15375 251793.120000
   1177   1180     1   0.15375 251793.120000
   1180   1189     1   0.15375 251793.120000
   1183   1195     1   0.15375 251793.120000
   1186   1192     1   0.15375 251793.120000
   1189   1198     1   0.14316 258236.480000
   1192   2428     1   0.14316 258236.480000
   1195   2458     1   0.14316 258236.480000
   1200   1201     1   0.15110 237065.440000
   1200   1204     1   0.15110 237065.440000
   1200   1207     1   0.15110 237065.440000
   1201   1213     1   0.15375 251793.120000
   1204   1216     1   0.15375 251793.120000
   1207   1210     1   0.15375 251793.120000
   1210   1219     1   0.15375 251793.120000
   1213   1225     1   0.15375 251793.120000
   1216   1222     1   0.15375 251793.120000
   1219   1228     1   0.14316 258236.480000
   1222   2488     1   0.14316 258236.480000
   1225   2518     1   0.14316 258236.480000
   1230   1231     1   0.15110 237065.440000
   1230   1234     1   0.15110 237065.440000
   1230   1237     1   0.15110 237065.440000
   1231   1243     1   0.15375 251793.120000
   1234   1246     1   0.15375 251793.120000
   1237   1240     1   0.15375 251793.120000
   1240   1249     1   0.15375 251793.120000
   1243   1255     1   0.15375 251793.120000
   1246   1252     1   0.15375 251793.120000
   1249   1258     1   0.14316 258236.480000
   1252   2548     1   0.14316 258236.480000
   1255   2578     1   0.14316 258236.480000
   1260   1261     1   0.15110 237065.440000
   1260   1264     1   0.15110 237065.440000
   1260   1267     1   0.15110 237065.440000
   1261   1273     1   0.15375 251793.120000
   1264   1276     1   0.15375 251793.120000
   1267   1270     1   0.15375 251793.120000
   1270   1279     1   0.15375 251793.120000
   1273   1285     1   0.15375 251793.120000
   1276   1282     1   0.15375 251793.120000
   1279   1288     1   0.14316 258236.480000
   1282   2608     1   0.14316 258236.480000
   1285   2638     1   0.14316 258236.480000
   1290   1291     1   0.15110 237065.440000
   1290   1294     1   0.15110 237065.440000
   1290   1297     1   0.15110 237065.440000
   1291   1303     1   0.15375 251793.120000
   1294   1306     1   0.15375 251793.120000
   1297   1300     1   0.15375 251793.120000
   1300   1309     1   0.15375 251793.120000
   1303   1315     1   0.15375 251793.120000
   1306   1312     1   0.15375 251793.120000
   1309   1318     1   0.14316 258236.480000
   1312   2668     1   0.14316 258236.480000
   1315   2698     1   0.14316 258236.480000
   1320   1321     1   0.15110 237065.440000
   1320   1324     1   0.15110 237065.440000
   1320   1327     1   0.15110 237065.440000
   1321   1333     1   0.15375 251793.120000
   1324   1336     1   0.15375 251793.120000
   1327   1330     1   0.15375 251793.120000
   1330   1339     1   0.15375 251793.120000
   1333   1345     1   0.15375 251793.120000
   1336   1342     1   0.15375 251793.120000
   1339   1348     1   0.14316 258236.480000
   1342   2728     1   0.14316 258236.480000
   1345   2758     1   0.14316 258236.480000
   1350   1351     1   0.15110 237065.440000
   1350   1354     1   0.15110 237065.440000
   1350   1357     1   0.15110 237065.440000
   1351   1363     1   0.15375 251793.120000
   1354   1366     1   0.15375 251793.120000
   1357   1360     1   0.15375 251793.120000
   1360   1369     1   0.15375 251793.120000
   1363   1375     1   0.15375 251793.120000
   1366   1372     1   0.15375 251793.120000
   1369   1378     1   0.14316 258236.480000
   1372   2788     1   0.14316 258236.480000
   1375   2818     1   0.14316 258236.480000
   1380   1381     1   0.15110 237065.440000
   1380   1384     1   0.15110 237065.440000
   1380   1387     1   0.15110 237065.440000
   1381   1393     1   0.15375 251793.120000
   1384   1396     1   0.15375 251793.120000
   1387   1390     1   0.15375 251793.120000
   1390   1399     1   0.15375 251793.120000
   1393   1405     1   0.15375 251793.120000
   1396   1402     1   0.15375 251793.120000
   1399   1408     1   0.14316 258236.480000
   1402   2832     1   0.14316 258236.480000
   1405   2846     1   0.14316 258236.480000
   1410   1411     1   0.15110 237065.440000
   1410   1414     1   0.15110 237065.440000
   1410   1417     1   0.15110 237065.440000
   1411   1423     1   0.15375 251793.120000
   1414   1426     1   0.15375 251793.120000
   1417   1420     1   0.15375 251793.120000
   1420   1429     1   0.15375 251793.120000
   1423   1435     1   0.15375 251793.120000
   1426   1432     1   0.15375 251793.120000
   1429   1438     1   0.14316 258236.480000
   1432   2860     1   0.14316 258236.480000
   1435   2874     1   0.14316 258236.480000
   1440   1441     1   0.15110 237065.440000
   1440   1444     1   0.15110 237065.440000
   1440   1447     1   0.15110 237065.440000
   1441   1453     1   0.15375 251793.120000
   1444   1456     1   0.15375 251793.120000
   1447   1450     1   0.15375 251793.120000
   1450   1459     1   0.15375 251793.120000
   1453   1465     1   0.15375 251793.120000
   1456   1462     1   0.15375 251793.120000
   1459   1468     1   0.14316 258236.480000
   1462   2888     1   0.14316 258236.480000
   1465   2902     1   0.14316 258236.480000
   1470   1471     1   0.15110 237065.440000
   1470   1474     1   0.15110 237065.440000
   1470   1477     1   0.15110 237065.440000
   1471   1483     1   0.15375 251793.120000
   1474   1486     1   0.15375 251793.120000
   1477   1480     1   0.15375 251793.120000
   1480   1489     1   0.15375 251793.120000
   1483   1495     1   0.15375 251793.120000
   1486   1492     1   0.15375 251793.120000
   1489   1498     1   0.14316 258236.480000
   1492   2916     1   0.14316 258236.480000
   1495   2930     1   0.14316 258236.480000
   1500   1501     1   0.15110 237065.440000
   1500   1504     1   0.15110 237065.440000
   1500   1507     1   0.15110 237065.440000
   1501   1513     1   0.15375 251793.120000
   1504   1516     1   0.15375 251793.120000
   1507   1510     1   0.15375 251793.120000
   1510   1519     1   0.15375 251793.120000
   1513   1525     1   0.15375 251793.120000
   1516   1522     1   0.15375 251793.120000
   1519   1528     1   0.14316 258236.480000
   1522   2944     1   0.14316 258236.480000
   1525   2958     1   0.14316 258236.480000
   1530   1531     1   0.15110 237065.440000
   1530   1534     1   0.15110 237065.440000
   1530   1537     1   0.15110 237065.440000
   1531   1543     1   0.15375 251793.120000
   1534   1546     1   0.15375 251793.120000
   1537   1540     1   0.15375 251793.120000
   1540   1549     1   0.15375 251793.120000
   1543   1555     1   0.15375 251793.120000
   1546   1552     1   0.15375 251793.120000
   1549   1558     1   0.14316 258236.480000
   1552   2972     1   0.14316 258236.480000
   1555   2986     1   0.14316 258236.480000
   1560   1561     1   0.15110 237065.440000
   1560   1564     1   0.15110 237065.440000
   1560   1567     1   0.15110 237065.440000
   1561   1573     1   0.15375 251793.120000
   1564   1576     1   0.15375 251793.120000
   1567   1570     1   0.15375 251793.120000
   1570   1579     1   0.15375 251793.120000
   1573   1585     1   0.15375 251793.120000
   1576   1582     1   0.15375 251793.120000
   1579   1588     1   0.14316 258236.480000
   1582   3000     1   0.14316 258236.480000
   1585   3014     1   0.14316 258236.480000
   1590   1591     1   0.15110 237065.440000
   1590   1594     1   0.15110 237065.440000
   1590   1597     1   0.15110 237065.440000
   1591   1603     1   0.15375 251793.120000
   1594   1606     1   0.15375 251793.120000
   1597   1600     1   0.15375 251793.120000
   1600   1609     1   0.15375 251793.120000
   1603   1615     1   0.15375 251793.120000
   1606   1612     1   0.15375 251793.120000
   1609   1618     1   0.14316 258236.480000
   1612   3028     1   0.14316 258236.480000
   1615   3042     1   0.14316 258236.480000
   1620   1621     1   0.15110 237065.440000
   1620   1624     1   0.15110 237065.440000
   1620   1627     1   0.15110 237065.440000
   1621   1633     1   0.15375 251793.120000
   1624   1636     1   0.15375 251793.120000
   1627   1630     1   0.15375 251793.120000
   1630   1639     1   0.15375 251793.120000
   1633   1645     1   0.15375 251793.120000
   1636   1642     1   0.15375 251793.120000
   1639   1648     1   0.14316 258236.480000
   1642   3056     1   0.14316 258236.480000
   1645   3070     1   0.14316 258236.480000
   1650   1651     1   0.15110 237065.440000
   1650   1654     1   0.15110 237065.440000
   1650   1657     1   0.15110 237065.440000
   1651   1663     1   0.15375 251793.120000
   1654   1666     1   0.15375 251793.120000
   1657   1660     1   0.15375 251793.120000
   1660   1669     1   0.15375 251793.120000
   1663   1675     1   0.15375 251793.120000
   1666   1672     1   0.15375 251793.120000
   1669   1678     1   0.14316 258236.480000
   1672   3084     1   0.14316 258236.480000
   1675   3098     1   0.14316 258236.480000
   1680   1681     1   0.15110 237065.440000
   1680   1684     1   0.15110 237065.440000
   1680   1687     1   0.15110 237065.440000
   1681   1693     1   0.15375 251793.120000
   1684   1696     1   0.15375 251793.120000
   1687   1690     1   0.15375 251793.120000
   1690   1699     1   0.15375 251793.120000
   1693   1705     1   0.15375 251793.120000
   1696   1702     1   0.15375 251793.120000
   1699   1708     1   0.14316 258236.480000
   1702   3112     1   0.14316 258236.480000
   1705   3126     1   0.14316 258236.480000
   1710   1711     1   0.15110 237065.440000
   1710   1714     1   0.15110 237065.440000
   1710   1717     1   0.15110 237065.440000
   1711   1723     1   0.15375 251793.120000
   1714   1726     1   0.15375 251793.120000
   1717   1720     1   0.15375 251793.120000
   1720   1729     1   0.15375 251793.120000
   1723   1735     1   0.15375 251793.120000
   1726   1732     1   0.15375 251793.120000
   1729   1738     1   0.14316 258236.480000
   1732   3140     1   0.14316 258236.480000
   1735   3154     1   0.14316 258236.480000
   1740   1741     1   0.15110 237065.440000
   1740   1744     1   0.15110 237065.440000
   1740   1747     1   0.15110 237065.440000
   1741   1753     1   0.15375 251793.120000
   1744   1756     1   0.15375 251793.120000
   1747   1750     1   0.15375 251793.120000
   1750   1759     1   0.15375 251793.120000
   1753   1765     1   0.15375 251793.120000
   1756   1762     1   0.15375 251793.120000
   1759   1768     1   0.14316 258236.480000
   1762   3168     1   0.14316 258236.480000
   1765   3182     1   0.14316 258236.480000
   1770   1771     1   0.15110 237065.440000
   1770   1774     1   0.15110 237065.440000
   1770   1777     1   0.15110 237065.440000
   1771   1783     1   0.15375 251793.120000
   1774   1786     1   0.15375 251793.120000
   1777   1780     1   0.15375 251793.120000
   1780   1789     1   0.15375 251793.120000
   1783   1795     1   0.15375 251793.120000
   1786   1792     1   0.15375 251793.120000
   1789   1798     1   0.14316 258236.480000
   1792   3196     1   0.14316 258236.480000
   1795   3210     1   0.14316 258236.480000
   1800   1801     1   0.15110 237065.440000
   1800   1804     1   0.15110 237065.440000
   1800   1807     1   0.15110 237065.440000
   1801   1813     1   0.15375 251793.120000
   1804   1816     1   0.15375 251793.120000
   1807   1810     1   0.15375 251793.120000
   1810   1819     1   0.15375 251793.120000
   1813   1825     1   0.15375 251793.120000
   1816   1822     1   0.15375 251793.120000
   1819   1828     1   0.14316 258236.480000
   1822   3224     1   0.14316 258236.480000
   1825   3238     1   0.14316 258236.480000
   1830   1831     1   0.15110 237065.440000
   1830   1834     1   0.15110 237065.440000
   1830   1837     1   0.15110 237065.440000
   1831   1843     1   0.15375 251793.120000
   1834   1846     1   0.15375 251793.120000
   1837   1840     1   0.15375 251793.120000
   1840   1849     1   0.15375 251793.120000
   1843   1855     1   0.15375 251793.120000
   1846   1852     1   0.15375 251793.120000
   1849   1858     1   0.14316 258236.480000
   1852   3252     1   0.14316 258236.480000
   1855   3266     1   0.14316 258236.480000
   1860   1861     1   0.15110 237065.440000
   1860   1864     1   0.15110 237065.440000
   1860   1867     1   0.15110 237065.440000
   1861   1873     1   0.15375 251793.120000
   1864   1876     1   0.15375 251793.120000
   1867   1870     1   0.15375 251793.120000
   1870   1879     1   0.15375 251793.120000
   1873   1885     1   0.15375 251793.120000
   1876   1882     1   0.15375 251793.120000
   1879   1888     1   0.14316 258236.480000
   1882   3280     1   0.14316 258236.480000
   1885   3294     1   0.14316 258236.480000
   1890   1891     1   0.15110 237065.440000
   1890   1894     1   0.15110 237065.440000
   1890   1897     1   0.15110 237065.440000
   1891   1903     1   0.15375 251793.120000
   1894   1906     1   0.15375 251793.120000
   1897   1900     1   0.15375 251793.120000
   1900   1909     1   0.15375 251793.120000
   1903   1915     1   0.15375 251793.120000
   1906   1912     1   0.15375 251793.120000
   1909   1918     1   0.14316 258236.480000
   1912   3308     1   0.14316 258236.480000
   1915   3322     1   0.14316 258236.480000
   1920   1921     1   0.15110 237065.440000
   1920   1924     1   0.15110 237065.440000
   1920   1927     1   0.15110 237065.440000
   1921   1933     1   0.15375 251793.120000
   1924   1936     1   0.15375 251793.120000
   1927   1930     1   0.15375 251793.120000
   1930   1939     1   0.15375 251793.120000
   1933   1945     1   0.15375 251793.120000
   1936   1942     1   0.15375 251793.120000
   1939   1948     1   0.14316 258236.480000
   1942   3336     1   0.14316 258236.480000
   1945   3350     1   0.14316 258236.480000
   1950   1951     1   0.15110 237065.440000
   1950   1954     1   0.15110 237065.440000
   1950   1957     1   0.15110 237065.440000
   1951   1963     1   0.15375 251793.120000
   1954   1966     1   0.15375 251793.120000
   1957   1960     1   0.15375 251793.120000
   1960   1969     1   0.15375 251793.120000
   1963   1975     1   0.15375 251793.120000
   1966   1972     1   0.15375 251793.120000
   1969   1978     1   0.14316 258236.480000
   1972   3364     1   0.14316 258236.480000
   1975   3378     1   0.14316 258236.480000
   1980   1981     1   0.15110 237065.440000
   1980   1984     1   0.15110 237065.440000
   1980   1987     1   0.15110 237065.440000
   1981   1993     1   0.15375 251793.120000
   1984   1996     1   0.15375 251793.120000
   1987   1990     1   0.15375 251793.120000
   1990   1999     1   0.15375 251793.120000
   1993   2005     1   0.15375 251793.120000
   1996   2002     1   0.15375 251793.120000
   1999   2008     1   0.14316 258236.480000
   2002   3392     1   0.14316 258236.480000
   2005   3406     1   0.14316 258236.480000
   2010   2011     1   0.15110 237065.440000
   2010   2014     1   0.15110 237065.440000
   2010   2017     1   0.15110 237065.440000
   2011   2023     1   0.15375 251793.120000
   2014   2026     1   0.15375 251793.120000
   2017   2020     1   0.15375 251793.120000
   2020   2029     1   0.15375 251793.120000
   2023   2035     1   0.15375 251793.120000
   2026   2032     1   0.15375 251793.120000
   2029   2038     1   0.14316 258236.480000
   2032   3420     1   0.14316 258236.480000
   2035   3434     1   0.14316 258236.480000
   2040   2041     1   0.15110 237065.440000
   2040   2044     1   0.15110 237065.440000
   2040   2047     1   0.15110 237065.440000
   2041   2053     1   0.15375 251793.120000
   2044   2056     1   0.15375 251793.120000
   2047   2050     1   0.15375 251793.120000
   2050   2059     1   0.15375 251793.120000
   2053   2065     1   0.15375 251793.120000
   2056   2062     1   0.15375 251793.120000
   2059   2068     1   0.14316 258236.480000
   2062   3448     1   0.14316 258236.480000
   2065   3462     1   0.14316 258236.480000
   2070   2071     1   0.15110 237065.440000
   2070   2074     1   0.15110 237065.440000
   2070   2077     1   0.15110 237065.440000
   2071   2083     1   0.15375 251793.120000
   2074   2086     1   0.15375 251793.120000
   2077   2080     1   0.15375 251793.120000
   2080   2089     1   0.15375 251793.120000
   2083   2095     1   0.15375 251793.120000
   2086   2092     1   0.15375 251793.120000
   2089   2098     1   0.14316 258236.480000
   2092   3476     1   0.14316 258236.480000
   2095   3490     1   0.14316 258236.480000
   2100   2101     1   0.15110 237065.440000
   2100   2104     1   0.15110 237065.440000
   2100   2107     1   0.15110 237065.440000
   2101   2113     1   0.15375 251793.120000
   2104   2116     1   0.15375 251793.120000
   2107   2110     1   0.15375 251793.120000
   2110   2119     1   0.15375 251793.120000
   2113   2125     1   0.15375 251793.120000
   2116   2122     1   0.15375 251793.120000
   2119   2128     1   0.14316 258236.480000
   2122   3504     1   0.14316 258236.480000
   2125   3518     1   0.14316 258236.480000
   2130   2131     1   0.15110 237065.440000
   2130   2134     1   0.15110 237065.440000
   2130   2137     1   0.15110 237065.440000
   2131   2143     1   0.15375 251793.120000
   2134   2146     1   0.15375 251793.120000
   2137   2140     1   0.15375 251793.120000
   2140   2149     1   0.15375 251793.120000
   2143   2155     1   0.15375 251793.120000
   2146   2152     1   0.15375 251793.120000
   2149   2158     1   0.14316 258236.480000
   2152   3532     1   0.14316 258236.480000
   2155   3546     1   0.14316 258236.480000
   2160   2161     1   0.15110 237065.440000
   2160   2164     1   0.15110 237065.440000
   2160   2167     1   0.15110 237065.440000
   2161   2173     1   0.15375 251793.120000
   2164   2176     1   0.15375 251793.120000
   2167   2170     1   0.15375 251793.120000
   2170   2179     1   0.15375 251793.120000
   2173   2185     1   0.15375 251793.120000
   2176   2182     1   0.15375 251793.120000
   2179   2188     1   0.14316 258236.480000
   2182   3560     1   0.14316 258236.480000
   2185   3574     1   0.14316 258236.480000
   2190   2191     1   0.15110 237065.440000
   2190   2194     1   0.15110 237065.440000
   2190   2197     1   0.15110 237065.440000
   2191   2203     1   0.15375 251793.120000
   2194   2206     1   0.15375 251793.120000
   2197   2200     1   0.15375 251793.120000
   2200   2209     1   0.15375 251793.120000
   2203   2215     1   0.15375 251793.120000
   2206   2212     1   0.15375 251793.120000
   2209   2218     1   0.14316 258236.480000
   2212   3588     1   0.14316 258236.480000
   2215   3602     1   0.14316 258236.480000
   2220   2221     1   0.15110 237065.440000
   2220   2224     1   0.15110 237065.440000
   2220   2227     1   0.15110 237065.440000
   2221   2233     1   0.15375 251793.120000
   2224   2236     1   0.15375 251793.120000
   2227   2230     1   0.15375 251793.120000
   2230   2239     1   0.15375 251793.120000
   2233   2245     1   0.15375 251793.120000
   2236   2242     1   0.15375 251793.120000
   2239   2248     1   0.14316 258236.480000
   2242   3616     1   0.14316 258236.480000
   2245   3630     1   0.14316 258236.480000
   2250   2251     1   0.15110 237065.440000
   2250   2254     1   0.15110 237065.440000
   2250   2257     1   0.15110 237065.440000
   2251   2263     1   0.15375 251793.120000
   2254   2266     1   0.15375 251793.120000
   2257   2260     1   0.15375 251793.120000
   2260   2269     1   0.15375 251793.120000
   2263   2275     1   0.15375 251793.120000
   2266   2272     1   0.15375 251793.120000
   2269   2278     1   0.14316 258236.480000
   2272   3644     1   0.14316 258236.480000
   2275   3658     1   0.14316 258236.480000
   2280   2281     1   0.15110 237065.440000
   2280   2284     1   0.15110 237065.440000
   2280   2287     1   0.15110 237065.440000
   2281   2293     1   0.15375 251793.120000
   2284   2296     1   0.15375 251793.120000
   2287   2290     1   0.15375 251793.120000
   2290   2299     1   0.15375 251793.120000
   2293   2305     1   0.15375 251793.120000
   2296   2302     1   0.15375 251793.120000
   2299   2308     1   0.14316 258236.480000
   2302   3672     1   0.14316 258236.480000
   2305   3686     1   0.14316 258236.480000
   2310   2311     1   0.15110 237065.440000
   2310   2314     1   0.15110 237065.440000
   2310   2317     1   0.15110 237065.440000
   2311   2323     1   0.15375 251793.120000
   2314   2326     1   0.15375 251793.120000
   2317   2320     1   0.15375 251793.120000
   2320   2329     1   0.15375 251793.120000
   2323   2335     1   0.15375 251793.120000
   2326   2332     1   0.15375 251793.120000
   2329   2338     1   0.14316 258236.480000
   2332   3700     1   0.14316 258236.480000
   2335   3714     1   0.14316 258236.480000
   2340   2341     1   0.15110 237065.440000
   2340   2344     1   0.15110 237065.440000
   2340   2347     1   0.15110 237065.440000
   2341   2353     1   0.15375 251793.120000
   2344   2356     1   0.15375 251793.120000
   2347   2350     1   0.15375 251793.120000
   2350   2359     1   0.15375 251793.120000
   2353   2365     1   0.15375 251793.120000
   2356   2362     1   0.15375 251793.120000
   2359   2368     1   0.14316 258236.480000
   2362   3728     1   0.14316 258236.480000
   2365   3742     1   0.14316 258236.480000
   2370   2371     1   0.15110 237065.440000
   2370   2374     1   0.15110 237065.440000
   2370   2377     1   0.15110 237065.440000
   2371   2383     1   0.15375 251793.120000
   2374   2386     1   0.15375 251793.120000
   2377   2380     1   0.15375 251793.120000
   2380   2389     1   0.15375 251793.120000
   2383   2395     1   0.15375 251793.120000
   2386   2392     1   0.15375 251793.120000
   2389   2398     1   0.14316 258236.480000
   2392   3756     1   0.14316 258236.480000
   2395   3770     1   0.14316 258236.480000
   2400   2401     1   0.15110 237065.440000
   2400   2404     1   0.15110 237065.440000
   2400   2407     1   0.15110 237065.440000
   2401   2413     1   0.15375 251793.120000
   2404   2416     1   0.15375 251793.120000
   2407   2410     1   0.15375 251793.120000
   2410   2419     1   0.15375 251793.120000
   2413   2425     1   0.15375 251793.120000
   2416   2422     1   0.15375 251793.120000
   2419   2428     1   0.14316 258236.480000
   2422   3784     1   0.14316 258236.480000
   2425   3798     1   0.14316 258236.480000
   2430   2431     1   0.15110 237065.440000
   2430   2434     1   0.15110 237065.440000
   2430   2437     1   0.15110 237065.440000
   2431   2443     1   0.15375 251793.120000
   2434   2446     1   0.15375 251793.120000
   2437   2440     1   0.15375 251793.120000
   2440   2449     1   0.15375 251793.120000
   2443   2455     1   0.15375 251793.120000
   2446   2452     1   0.15375 251793.120000
   2449   2458     1   0.14316 258236.480000
   2452   3812     1   0.14316 258236.480000
   2455   3826     1   0.14316 258236.480000
   2460   2461     1   0.15110 237065.440000
   2460   2464     1   0.15110 237065.440000
   2460   2467     1   0.15110 237065.440000
   2461   2473     1   0.15375 251793.120000
   2464   2476     1   0.15375 251793.120000
   2467   2470     1   0.15375 251793.120000
   2470   2479     1   0.15375 251793.120000
   2473   2485     1   0.15375 251793.120000
   2476   2482     1   0.15375 251793.120000
   2479   2488     1   0.14316 258236.480000
   2482   3840     1   0.14316 258236.480000
   2485   3854     1   0.14316 258236.480000
   2490   2491     1   0.15110 237065.440000
   2490   2494     1   0.15110 237065.440000
   2490   2497     1   0.15110 237065.440000
   2491   2503     1   0.15375 251793.120000
   2494   2506     1   0.15375 251793.120000
   2497   2500     1   0.15375 251793.120000
   2500   2509     1   0.15375 251793.120000
   2503   2515     1   0.15375 251793.120000
   2506   2512     1   0.15375 251793.120000
   2509   2518     1   0.14316 258236.480000
   2512   3868     1   0.14316 258236.480000
   2515   3882     1   0.14316 258236.480000
   2520   2521     1   0.15110 237065.440000
   2520   2524     1   0.15110 237065.440000
   2520   2527     1   0.15110 237065.440000
   2521   2533     1   0.15375 251793.120000
   2524   2536     1   0.15375 251793.120000
   2527   2530     1   0.15375 251793.120000
   2530   2539     1   0.15375 251793.120000
   2533   2545     1   0.15375 251793.120000
   2536   2542     1   0.15375 251793.120000
   2539   2548     1   0.14316 258236.480000
   2542   3896     1   0.14316 258236.480000
   2545   3910     1   0.14316 258236.480000
   2550   2551     1   0.15110 237065.440000
   2550   2554     1   0.15110 237065.440000
   2550   2557     1   0.15110 237065.440000
   2551   2563     1   0.15375 251793.120000
   2554   2566     1   0.15375 251793.120000
   2557   2560     1   0.15375 251793.120000
   2560   2569     1   0.15375 251793.120000
   2563   2575     1   0.15375 251793.120000
   2566   2572     1   0.15375 251793.120000
   2569   2578     1   0.14316 258236.480000
   2572   3924     1   0.14316 258236.480000
   2575   3938     1   0.14316 258236.480000
   2580   2581     1   0.15110 237065.440000
   2580   2584     1   0.15110 237065.440000
   2580   2587     1   0.15110 237065.440000
   2581   2593     1   0.15375 251793.120000
   2584   2596     1   0.15375 251793.120000
   2587   2590     1   0.15375 251793.120000
   2590   2599     1   0.15375 251793.120000
   2593   2605     1   0.15375 251793.120000
   2596   2602     1   0.15375 251793.120000
   2599   2608     1   0.14316 258236.480000
   2602   3952     1   0.14316 258236.480000
   2605   3966     1   0.14316 258236.480000
   2610   2611     1   0.15110 237065.440000
   2610   2614     1   0.15110 237065.440000
   2610   2617     1   0.15110 237065.440000
   2611   2623     1   0.15375 251793.120000
   2614   2626     1   0.15375 251793.120000
   2617   2620     1   0.15375 251793.120000
   2620   2629     1   0.15375 251793.120000
   2623   2635     1   0.15375 251793.120000
   2626   2632     1   0.15375 251793.120000
   2629   2638     1   0.14316 258236.480000
   2632   3980     1   0.14316 258236.480000
   2635   3994     1   0.14316 258236.480000
   2640   2641     1   0.15110 237065.440000
   2640   2644     1   0.15110 237065.440000
   2640   2647     1   0.15110 237065.440000
   2641   2653     1   0.15375 251793.120000
   2644   2656     1   0.15375 251793.120000
   2647   2650     1   0.15375 251793.120000
   2650   2659     1   0.15375 251793.120000
   2653   2665     1   0.15375 251793.120000
   2656   2662     1   0.15375 251793.120000
   2659   2668     1   0.14316 258236.480000
   2662   4008     1   0.14316 258236.480000
   2665   4022     1   0.14316 258236.480000
   2670   2671     1   0.15110 237065.440000
   2670   2674     1   0.15110 237065.440000
   2670   2677     1   0.15110 237065.440000
   2671   2683     1   0.15375 251793.120000
   2674   2686     1   0.15375 251793.120000
   2677   2680     1   0.15375 251793.120000
   2680   2689     1   0.15375 251793.120000
   2683   2695     1   0.15375 251793.120000
   2686   2692     1   0.15375 251793.120000
   2689   2698     1   0.14316 258236.480000
   2692   4036     1   0.14316 258236.480000
   2695   4050     1   0.14316 258236.480000
   2700   2701     1   0.15110 237065.440000
   2700   2704     1   0.15110 237065.440000
   2700   2707     1   0.15110 237065.440000
   2701   2713     1   0.15375 251793.120000
   2704   2716     1   0.15375 251793.120000
   2707   2710     1   0.15375 251793.120000
   2710   2719     1   0.15375 251793.120000
   2713   2725     1   0.15375 251793.120000
   2716   2722     1   0.15375 251793.120000
   2719   2728     1   0.14316 258236.480000
   2722   4064     1   0.14316 258236.480000
   2725   4078     1   0.14316 258236.480000
   2730   2731     1   0.15110 237065.440000
   2730   2734     1   0.15110 237065.440000
   2730   2737     1   0.15110 237065.440000
   2731   2743     1   0.15375 251793.120000
   2734   2746     1   0.15375 251793.120000
   2737   2740     1   0.15375 251793.120000
   2740   2749     1   0.15375 251793.120000
   2743   2755     1   0.15375 251793.120000
   2746   2752     1   0.15375 251793.120000
   2749   2758     1   0.14316 258236.480000
   2752   4092     1   0.14316 258236.480000
   2755   4106     1   0.14316 258236.480000
   2760   2761     1   0.15110 237065.440000
   2760   2764     1   0.15110 237065.440000
   2760   2767     1   0.15110 237065.440000
   2761   2773     1   0.15375 251793.120000
   2764   2776     1   0.15375 251793.120000
   2767   2770     1   0.15375 251793.120000
   2770   2779     1   0.15375 251793.120000
   2773   2785     1   0.15375 251793.120000
   2776   2782     1   0.15375 251793.120000
   2779   2788     1   0.14316 258236.480000
   2782   4120     1   0.14316 258236.480000
   2785   4134     1   0.14316 258236.480000
   2790   2791     1   0.15110 237065.440000
   2790   2794     1   0.15110 237065.440000
   2790   2797     1   0.15110 237065.440000
   2791   2803     1   0.15375 251793.120000
   2794   2806     1   0.15375 251793.120000
   2797   2800     1   0.15375 251793.120000
   2800   2809     1   0.15375 251793.120000
   2803   2815     1   0.15375 251793.120000
   2806   2812     1   0.15375 251793.120000
   2809   2818     1   0.14316 258236.480000
   2812   4148     1   0.14316 258236.480000
   2815   4162     1   0.14316 258236.480000
   2820   2823     1   0.15375 251793.120000
   2820   2829     1   0.15110 237065.440000
   2823   2826     1   0.15375 251793.120000
   2826   2832     1   0.14316 258236.480000
   2834   2837     1   0.15375 251793.120000
   2834   2843     1   0.15110 237065.440000
   2837   2840     1   0.15375 251793.120000
   2840   2846     1   0.14316 258236.480000
   2848   2851     1   0.15375 251793.120000
   2848   2857     1   0.15110 237065.440000
   2851   2854     1   0.15375 251793.120000
   2854   2860     1   0.14316 258236.480000
   2862   2865     1   0.15375 251793.120000
   2862   2871     1   0.15110 237065.440000
   2865   2868     1   0.15375 251793.120000
   2868   2874     1   0.14316 258236.480000
   2876   2879     1   0.15375 251793.120000
   2876   2885     1   0.15110 237065.440000
   2879   2882     1   0.15375 251793.120000
   2882   2888     1   0.14316 258236.480000
   2890   2893     1   0.15375 251793.120000
   2890   2899     1   0.15110 237065.440000
   2893   2896     1   0.15375 251793.120000
   2896   2902     1   0.14316 258236.480000
   2904   2907     1   0.15375 251793.120000
   2904   2913     1   0.15110 237065.440000
   2907   2910     1   0.15375 251793.120000
   2910   2916     1   0.14316 258236.480000
   2918   2921     1   0.15375 251793.120000
   2918   2927     1   0.15110 237065.440000
   2921   2924     1   0.15375 251793.120000
   2924   2930     1   0.14316 258236.480000
   2932   2935     1   0.15375 251793.120000
   2932   2941     1   0.15110 237065.440000
   2935   2938     1   0.15375 251793.120000
   2938   2944     1   0.14316 258236.480000
   2946   2949     1   0.15375 251793.120000
   2946   2955     1   0.15110 237065.440000
   2949   2952     1   0.15375 251793.120000
   2952   2958     1   0.14316 258236.480000
   2960   2963     1   0.15375 251793.120000
   2960   2969     1   0.15110 237065.440000
   2963   2966     1   0.15375 251793.120000
   2966   2972     1   0.14316 258236.480000
   2974   2977     1   0.15375 251793.120000
   2974   2983     1   0.15110 237065.440000
   2977   2980     1   0.15375 251793.120000
   2980   2986     1   0.14316 258236.480000
   2988   2991     1   0.15375 251793.120000
   2988   2997     1   0.15110 237065.440000
   2991   2994     1   0.15375 251793.120000
   2994   3000     1   0.14316 258236.480000
   3002   3005     1   0.15375 251793.120000
   3002   3011     1   0.15110 237065.440000
   3005   3008     1   0.15375 251793.120000
   3008   3014     1   0.14316 258236.480000
   3016   3019     1   0.15375 251793.120000
   3016   3025     1   0.15110 237065.440000
   3019   3022     1   0.15375 251793.120000
   3022   3028     1   0.14316 258236.480000
   3030   3033     1   0.15375 251793.120000
   3030   3039     1   0.15110 237065.440000
   3033   3036     1   0.15375 251793.120000
   3036   3042     1   0.14316 258236.480000
   3044   3047     1   0.15375 251793.120000
   3044   3053     1   0.15110 237065.440000
   3047   3050     1   0.15375 251793.120000
   3050   3056     1   0.14316 258236.480000
   3058   3061     1   0.15375 251793.120000
   3058   3067     1   0.15110 237065.440000
   3061   3064     1   0.15375 251793.120000
   3064   3070     1   0.14316 258236.480000
   3072   3075     1   0.15375 251793.120000
   3072   3081     1   0.15110 237065.440000
   3075   3078     1   0.15375 251793.120000
   3078   3084     1   0.14316 258236.480000
   3086   3089     1   0.15375 251793.120000
   3086   3095     1   0.15110 237065.440000
   3089   3092     1   0.15375 251793.120000
   3092   3098     1   0.14316 258236.480000
   3100   3103     1   0.15375 251793.120000
   3100   3109     1   0.15110 237065.440000
   3103   3106     1   0.15375 251793.120000
   3106   3112     1   0.14316 258236.480000
   3114   3117     1   0.15375 251793.120000
   3114   3123     1   0.15110 237065.440000
   3117   3120     1   0.15375 251793.120000
   3120   3126     1   0.14316 258236.480000
   3128   3131     1   0.15375 251793.120000
   3128   3137     1   0.15110 237065.440000
   3131   3134     1   0.15375 251793.120000
   3134   3140     1   0.14316 258236.480000
   3142   3145     1   0.15375 251793.120000
   3142   3151     1   0.15110 237065.440000
   3145   3148     1   0.15375 251793.120000
   3148   3154     1   0.14316 258236.480000
   3156   3159     1   0.15375 251793.120000
   3156   3165     1   0.15110 237065.440000
   3159   3162     1   0.15375 251793.120000
   3162   3168     1   0.14316 258236.480000
   3170   3173     1   0.15375 251793.120000
   3170   3179     1   0.15110 237065.440000
   3173   3176     1   0.15375 251793.120000
   3176   3182     1   0.14316 258236.480000
   3184   3187     1   0.15375 251793.120000
   3184   3193     1   0.15110 237065.440000
   3187   3190     1   0.15375 251793.120000
   3190   3196     1   0.14316 258236.480000
   3198   3201     1   0.15375 251793.120000
   3198   3207     1   0.15110 237065.440000
   3201   3204     1   0.15375 251793.120000
   3204   3210     1   0.14316 258236.480000
   3212   3215     1   0.15375 251793.120000
   3212   3221     1   0.15110 237065.440000
   3215   3218     1   0.15375 251793.120000
   3218   3224     1   0.14316 258236.480000
   3226   3229     1   0.15375 251793.120000
   3226   3235     1   0.15110 237065.440000
   3229   3232     1   0.15375 251793.120000
   3232   3238     1   0.14316 258236.480000
   3240   3243     1   0.15375 251793.120000
   3240   3249     1   0.15110 237065.440000
   3243   3246     1   0.15375 251793.120000
   3246   3252     1   0.14316 258236.480000
   3254   3257     1   0.15375 251793.120000
   3254   3263     1   0.15110 237065.440000
   3257   3260     1   0.15375 251793.120000
   3260   3266     1   0.14316 258236.480000
   3268   3271     1   0.15375 251793.120000
   3268   3277     1   0.15110 237065.440000
   3271   3274     1   0.15375 251793.120000
   3274   3280     1   0.14316 258236.480000
   3282   3285     1   0.15375 251793.120000
   3282   3291     1   0.15110 237065.440000
   3285   3288     1   0.15375 251793.120000
   3288   3294     1   0.14316 258236.480000
   3296   3299     1   0.15375 251793.120000
   3296   3305     1   0.15110 237065.440000
   3299   3302     1   0.15375 251793.120000
   3302   3308     1   0.14316 258236.480000
   3310   3313     1   0.15375 251793.120000
   3310   3319     1   0.15110 237065.440000
   3313   3316     1   0.15375 251793.120000
   3316   3322     1   0.14316 258236.480000
   3324   3327     1   0.15375 251793.120000
   3324   3333     1   0.15110 237065.440000
   3327   3330     1   0.15375 251793.120000
   3330   3336     1   0.14316 258236.480000
   3338   3341     1   0.15375 251793.120000
   3338   3347     1   0.15110 237065.440000
   3341   3344     1   0.15375 251793.120000
   3344   3350     1   0.14316 258236.480000
   3352   3355     1   0.15375 251793.120000
   3352   3361     1   0.15110 237065.440000
   3355   3358     1   0.15375 251793.120000
   3358   3364     1   0.14316 258236.480000
   3366   3369     1   0.15375 251793.120000
   3366   3375     1   0.15110 237065.440000
   3369   3372     1   0.15375 251793.120000
   3372   3378     1   0.14316 258236.480000
   3380   3383     1   0.15375 251793.120000
   3380   3389     1   0.15110 237065.440000
   3383   3386     1   0.15375 251793.120000
   3386   3392     1   0.14316 258236.480000
   3394   3397     1   0.15375 251793.120000
   3394   3403     1   0.15110 237065.440000
   3397   3400     1   0.15375 251793.120000
   3400   3406     1   0.14316 258236.480000
   3408   3411     1   0.15375 251793.120000
   3408   3417     1   0.15110 237065.440000
   3411   3414     1   0.15375 251793.120000
   3414   3420     1   0.14316 258236.480000
   3422   3425     1   0.15375 251793.120000
   3422   3431     1   0.15110 237065.440000
   3425   3428     1   0.15375 251793.120000
   3428   3434     1   0.14316 258236.480000
   3436   3439     1   0.15375 251793.120000
   3436   3445     1   0.15110 237065.440000
   3439   3442     1   0.15375 251793.120000
   3442   3448     1   0.14316 258236.480000
   3450   3453     1   0.15375 251793.120000
   3450   3459     1   0.15110 237065.440000
   3453   3456     1   0.15375 251793.120000
   3456   3462     1   0.14316 258236.480000
   3464   3467     1   0.15375 251793.120000
   3464   3473     1   0.15110 237065.440000
   3467   3470     1   0.15375 251793.120000
   3470   3476     1   0.14316 258236.480000
   3478   3481     1   0.15375 251793.120000
   3478   3487     1   0.15110 237065.440000
   3481   3484     1   0.15375 251793.120000
   3484   3490     1   0.14316 258236.480000
   3492   3495     1   0.15375 251793.120000
   3492   3501     1   0.15110 237065.440000
   3495   3498     1   0.15375 251793.120000
   3498   3504     1   0.14316 258236.480000
   3506   3509     1   0.15375 251793.120000
   3506   3515     1   0.15110 237065.440000
   3509   3512     1   0.15375 251793.120000
   3512   3518     1   0.14316 258236.480000
   3520   3523     1   0.15375 251793.120000
   3520   3529     1   0.15110 237065.440000
   3523   3526     1   0.15375 251793.120000
   3526   3532     1   0.14316 258236.480000
   3534   3537     1   0.15375 251793.120000
   3534   3543     1   0.15110 237065.440000
   3537   3540     1   0.15375 251793.120000
   3540   3546     1   0.14316 258236.480000
   3548   3551     1   0.15375 251793.120000
   3548   3557     1   0.15110 237065.440000
   3551   3554     1   0.15375 251793.120000
   3554   3560     1   0.14316 258236.480000
   3562   3565     1   0.15375 251793.120000
   3562   3571     1   0.15110 237065.440000
   3565   3568     1   0.15375 251793.120000
   3568   3574     1   0.14316 258236.480000
   3576   3579     1   0.15375 251793.120000
   3576   3585     1   0.15110 237065.440000
   3579   3582     1   0.15375 251793.120000
   3582   3588     1   0.14316 258236.480000
   3590   3593     1   0.15375 251793.120000
   3590   3599     1   0.15110 237065.440000
   3593   3596     1   0.15375 251793.120000
   3596   3602     1   0.14316 258236.480000
   3604   3607     1   0.15375 251793.120000
   3604   3613     1   0.15110 237065.440000
   3607   3610     1   0.15375 251793.120000
   3610   3616     1   0.14316 258236.480000
   3618   3621     1   0.15375 251793.120000
   3618   3627     1   0.15110 237065.440000
   3621   3624     1   0.15375 251793.120000
   3624   3630     1   0.14316 258236.480000
   3632   3635     1   0.15375 251793.120000
   3632   3641     1   0.15110 237065.440000
   3635   3638     1   0.15375 251793.120000
   3638   3644     1   0.14316 258236.480000
   3646   3649     1   0.15375 251793.120000
   3646   3655     1   0.15110 237065.440000
   3649   3652     1   0.15375 251793.120000
   3652   3658     1   0.14316 258236.480000
   3660   3663     1   0.15375 251793.120000
   3660   3669     1   0.15110 237065.440000
   3663   3666     1   0.15375 251793.120000
   3666   3672     1   0.14316 258236.480000
   3674   3677     1   0.15375 251793.120000
   3674   3683     1   0.15110 237065.440000
   3677   3680     1   0.15375 251793.120000
   3680   3686     1   0.14316 258236.480000
   3688   3691     1   0.15375 251793.120000
   3688   3697     1   0.15110 237065.440000
   3691   3694     1   0.15375 251793.120000
   3694   3700     1   0.14316 258236.480000
   3702   3705     1   0.15375 251793.120000
   3702   3711     1   0.15110 237065.440000
   3705   3708     1   0.15375 251793.120000
   3708   3714     1   0.14316 258236.480000
   3716   3719     1   0.15375 251793.120000
   3716   3725     1   0.15110 237065.440000
   3719   3722     1   0.15375 251793.120000
   3722   3728     1   0.14316 258236.480000
   3730   3733     1   0.15375 251793.120000
   3730   3739     1   0.15110 237065.440000
   3733   3736     1   0.15375 251793.120000
   3736   3742     1   0.14316 258236.480000
   3744   3747     1   0.15375 251793.120000
   3744   3753     1   0.15110 237065.440000
   3747   3750     1   0.15375 251793.120000
   3750   3756     1   0.14316 258236.480000
   3758   3761     1   0.15375 251793.120000
   3758   3767     1   0.15110 237065.440000
   3761   3764     1   0.15375 251793.120000
   3764   3770     1   0.14316 258236.480000
   3772   3775     1   0.15375 251793.120000
   3772   3781     1   0.15110 237065.440000
   3775   3778     1   0.15375 251793.120000
   3778   3784     1   0.14316 258236.480000
   3786   3789     1   0.15375 251793.120000
   3786   3795     1   0.15110 237065.440000
   3789   3792     1   0.15375 251793.120000
   3792   3798     1   0.14316 258236.480000
   3800   3803     1   0.15375 251793.120000
   3800   3809     1   0.15110 237065.440000
   3803   3806     1   0.15375 251793.120000
   3806   3812     1   0.14316 258236.480000
   3814   3817     1   0.15375 251793.120000
   3814   3823     1   0.15110 237065.440000
   3817   3820     1   0.15375 251793.120000
   3820   3826     1   0.14316 258236.480000
   3828   3831     1   0.15375 251793.120000
   3828   3837     1   0.15110 237065.440000
   3831   3834     1   0.15375 251793.120000
   3834   3840     1   0.14316 258236.480000
   3842   3845     1   0.15375 251793.120000
   3842   3851     1   0.15110 237065.440000
   3845   3848     1   0.15375 251793.120000
   3848   3854     1   0.14316 258236.480000
   3856   3859     1   0.15375 251793.120000
   3856   3865     1   0.15110 237065.440000
   3859   3862     1   0.15375 251793.120000
   3862   3868     1   0.14316 258236.480000
   3870   3873     1   0.15375 251793.120000
   3870   3879     1   0.15110 237065.440000
   3873   3876     1   0.15375 251793.120000
   3876   3882     1   0.14316 258236.480000
   3884   3887     1   0.15375 251793.120000
   3884   3893     1   0.15110 237065.440000
   3887   3890     1   0.15375 251793.120000
   3890   3896     1   0.14316 258236.480000
   3898   3901     1   0.15375 251793.120000
   3898   3907     1   0.15110 237065.440000
   3901   3904     1   0.15375 251793.120000
   3904   3910     1   0.14316 258236.480000
   3912   3915     1   0.15375 251793.120000
   3912   3921     1   0.15110 237065.440000
   3915   3918     1   0.15375 251793.120000
   3918   3924     1   0.14316 258236.480000
   3926   3929     1   0.15375 251793.120000
   3926   3935     1   0.15110 237065.440000
   3929   3932     1   0.15375 251793.120000
   3932   3938     1   0.14316 258236.480000
   3940   3943     1   0.15375 251793.120000
   3940   3949     1   0.15110 237065.440000
   3943   3946     1   0.15375 251793.120000
   3946   3952     1   0.14316 258236.480000
   3954   3957     1   0.15375 251793.120000
   3954   3963     1   0.15110 237065.440000
   3957   3960     1   0.15375 251793.120000
   3960   3966     1   0.14316 258236.480000
   3968   3971     1   0.15375 251793.120000
   3968   3977     1   0.15110 237065.440000
   3971   3974     1   0.15375 251793.120000
   3974   3980     1   0.14316 258236.480000
   3982   3985     1   0.15375 251793.120000
   3982   3991     1   0.15110 237065.440000
   3985   3988     1   0.15375 251793.120000
   3988   3994     1   0.14316 258236.480000
   3996   3999     1   0.15375 251793.120000
   3996   4005     1   0.15110 237065.440000
   3999   4002     1   0.15375 251793.120000
   4002   4008     1   0.14316 258236.480000
   4010   4013     1   0.15375 251793.120000
   4010   4019     1   0.15110 237065.440000
   4013   4016     1   0.15375 251793.120000
   4016   4022     1   0.14316 258236.480000
   4024   4027     1   0.15375 251793.120000
   4024   4033     1   0.15110 237065.440000
   4027   4030     1   0.15375 251793.120000
   4030   4036     1   0.14316 258236.480000
   4038   4041     1   0.15375 251793.120000
   4038   4047     1   0.15110 237065.440000
   4041   4044     1   0.15375 251793.120000
   4044   4050     1   0.14316 258236.480000
   4052   4055     1   0.15375 251793.120000
   4052   4061     1   0.15110 237065.440000
   4055   4058     1   0.15375 251793.120000
   4058   4064     1   0.14316 258236.480000
   4066   4069     1   0.15375 251793.120000
   4066   4075     1   0.15110 237065.440000
   4069   4072     1   0.15375 251793.120000
   4072   4078     1   0.14316 258236.480000
   4080   4083     1   0.15375 251793.120000
   4080   4089     1   0.15110 237065.440000
   4083   4086     1   0.15375 251793.120000
   4086   4092     1   0.14316 258236.480000
   4094   4097     1   0.15375 251793.120000
   4094   4103     1   0.15110 237065.440000
   4097   4100     1   0.15375 251793.120000
   4100   4106     1   0.14316 258236.480000
   4108   4111     1   0.15375 251793.120000
   4108   4117     1   0.15110 237065.440000
   4111   4114     1   0.15375 251793.120000
   4114   4120     1   0.14316 258236.480000
   4122   4125     1   0.15375 251793.120000
   4122   4131     1   0.15110 237065.440000
   4125   4128     1   0.15375 251793.120000
   4128   4134     1   0.14316 258236.480000
   4136   4139     1   0.15375 251793.120000
   4136   4145     1   0.15110 237065.440000
   4139   4142     1   0.15375 251793.120000
   4142   4148     1   0.14316 258236.480000
   4150   4153     1   0.15375 251793.120000
   4150   4159     1   0.15110 237065.440000
   4153   4156     1   0.15375 251793.120000
   4156   4162     1   0.14316 258236.480000
      1     29     1   0.10304 312293.760000
      2      3     1   0.10910 283424.160000
      2      4     1   0.10910 283424.160000
      5      6     1   0.10910 283424.160000
      5      7     1   0.10910 283424.160000
      8      9     1   0.10910 283424.160000
      8     10     1   0.10910 283424.160000
     11     12     1   0.10969 276646.080000
     11     13     1   0.10969 276646.080000
     14     15     1   0.10969 276646.080000
     14     16     1   0.10969 276646.080000
     17     18     1   0.10969 276646.080000
     17     19     1   0.10969 276646.080000
     20     21     1   0.10969 276646.080000
     20     22     1   0.10969 276646.080000
     23     24     1   0.10969 276646.080000
     23     25     1   0.10969 276646.080000
     26     27     1   0.10969 276646.080000
     26     28     1   0.10969 276646.080000
     30     59     1   0.10304 312293.760000
     31     32     1   0.10910 283424.160000
     31     33     1   0.10910 283424.160000
     34     35     1   0.10910 283424.160000
     34     36     1   0.10910 283424.160000
     37     38     1   0.10910 283424.160000
     37     39     1   0.10910 283424.160000
     40     41     1   0.10969 276646.080000
     40     42     1   0.10969 276646.080000
     43     44     1   0.10969 276646.080000
     43     45     1   0.10969 276646.080000
     46     47     1   0.10969 276646.080000
     46     48     1   0.10969 276646.080000
     49     50     1   0.10969 276646.080000
     49     51     1   0.10969 276646.080000
     52     53     1   0.10969 276646.080000
     52     54     1   0.10969 276646.080000
     55     56     1   0.10969 276646.080000
     55     57     1   0.10969 276646.080000
     60     89     1   0.10304 312293.760000
     61     62     1   0.10910 283424.160000
     61     63     1   0.10910 283424.160000
     64     65     1   0.10910 283424.160000
     64     66     1   0.10910 283424.160000
     67     68     1   0.10910 283424.160000
     67     69     1   0.10910 283424.160000
     70     71     1   0.10969 276646.080000
     70     72     1   0.10969 276646.080000
     73     74     1   0.10969 276646.080000
     73     75     1   0.10969 276646.080000
     76     77     1   0.10969 276646.080000
     76     78     1   0.10969 276646.080000
     79     80     1   0.10969 276646.080000
     79     81     1   0.10969 276646.080000
     82     83     1   0.10969 276646.080000
     82     84     1   0.10969 276646.080000
     85     86     1   0.10969 276646.080000
     85     87     1   0.10969 276646.080000
     90    119     1   0.10304 312293.760000
     91     92     1   0.10910 283424.160000
     91     93     1   0.10910 283424.160000
     94     95     1   0.10910 283424.160000
     94     96     1   0.10910 283424.160000
     97     98     1   0.10910 283424.160000
     97     99     1   0.10910 283424.160000
    100    101     1   0.10969 276646.080000
    100    102     1   0.10969 276646.080000
    103    104     1   0.10969 276646.080000
    103    105     1   0.10969 276646.080000
    106    107     1   0.10969 276646.080000
    106    108     1   0.10969 276646.080000
    109    110     1   0.10969 276646.080000
    109    111     1   0.10969 276646.080000
    112    113     1   0.10969 276646.080000
    112    114     1   0.10969 276646.080000
    115    116     1   0.10969 276646.080000
    115    117     1   0.10969 276646.080000
    120    149     1   0.10304 312293.760000
    121    122     1   0.10910 283424.160000
    121    123     1   0.10910 283424.160000
    124    125     1   0.10910 283424.160000
    124    126     1   0.10910 283424.160000
    127    128     1   0.10910 283424.160000
    127    129     1   0.10910 283424.160000
    130    131     1   0.10969 276646.080000
    130    132     1   0.10969 276646.080000
    133    134     1   0.10969 276646.080000
    133    135     1   0.10969 276646.080000
    136    137     1   0.10969 276646.080000
    136    138     1   0.10969 276646.080000
    139    140     1   0.10969 276646.080000
    139    141     1   0.10969 276646.080000
    142    143     1   0.10969 276646.080000
    142    144     1   0.10969 276646.080000
    145    146     1   0.10969 276646.080000
    145    147     1   0.10969 276646.080000
    150    179     1   0.10304 312293.760000
    151    152     1   0.10910 283424.160000
    151    153     1   0.10910 283424.160000
    154    155     1   0.10910 283424.160000
    154    156     1   0.10910 283424.160000
    157    158     1   0.10910 283424.160000
    157    159     1   0.10910 283424.160000
    160    161     1   0.10969 276646.080000
    160    162     1   0.10969 276646.080000
    163    164     1   0.10969 276646.080000
    163    165     1   0.10969 276646.080000
    166    167     1   0.10969 276646.080000
    166    168     1   0.10969 276646.080000
    169    170     1   0.10969 276646.080000
    169    171     1   0.10969 276646.080000
    172    173     1   0.10969 276646.080000
    172    174     1   0.10969 276646.080000
    175    176     1   0.10969 276646.080000
    175    177     1   0.10969 276646.080000
    180    209     1   0.10304 312293.760000
    181    182     1   0.10910 283424.160000
    181    183     1   0.10910 283424.160000
    184    185     1   0.10910 283424.160000
    184    186     1   0.10910 283424.160000
    187    188     1   0.10910 283424.160000
    187    189     1   0.10910 283424.160000
    190    191     1   0.10969 276646.080000
    190    192     1   0.10969 276646.080000
    193    194     1   0.10969 276646.080000
    193    195     1   0.10969 276646.080000
    196    197     1   0.10969 276646.080000
    196    198     1   0.10969 276646.080000
    199    200     1   0.10969 276646.080000
    199    201     1   0.10969 276646.080000
    202    203     1   0.10969 276646.080000
    202    204     1   0.10969 276646.080000
    205    206     1   0.10969 276646.080000
    205    207     1   0.10969 276646.080000
    210    239     1   0.10304 312293.760000
    211    212     1   0.10910 283424.160000
    211    213     1   0.10910 283424.160000
    214    215     1   0.10910 283424.160000
    214    216     1   0.10910 283424.160000
    217    218     1   0.10910 283424.160000
    217    219     1   0.10910 283424.160000
    220    221     1   0.10969 276646.080000
    220    222     1   0.10969 276646.080000
    223    224     1   0.10969 276646.080000
    223    225     1   0.10969 276646.080000
    226    227     1   0.10969 276646.080000
    226    228     1   0.10969 276646.080000
    229    230     1   0.10969 276646.080000
    229    231     1   0.10969 276646.080000
    232    233     1   0.10969 276646.080000
    232    234     1   0.10969 276646.080000
    235    236     1   0.10969 276646.080000
    235    237     1   0.10969 276646.080000
    240    269     1   0.10304 312293.760000
    241    242     1   0.10910 283424.160000
    241    243     1   0.10910 283424.160000
    244    245     1   0.10910 283424.160000
    244    246     1   0.10910 283424.160000
    247    248     1   0.10910 283424.160000
    247    249     1   0.10910 283424.160000
    250    251     1   0.10969 276646.080000
    250    252     1   0.10969 276646.080000
    253    254     1   0.10969 276646.080000
    253    255     1   0.10969 276646.080000
    256    257     1   0.10969 276646.080000
    256    258     1   0.10969 276646.080000
    259    260     1   0.10969 276646.080000
    259    261     1   0.10969 276646.080000
    262    263     1   0.10969 276646.080000
    262    264     1   0.10969 276646.080000
    265    266     1   0.10969 276646.080000
    265    267     1   0.10969 276646.080000
    270    299     1   0.10304 312293.760000
    271    272     1   0.10910 283424.160000
    271    273     1   0.10910 283424.160000
    274    275     1   0.10910 283424.160000
    274    276     1   0.10910 283424.160000
    277    278     1   0.10910 283424.160000
    277    279     1   0.10910 283424.160000
    280    281     1   0.10969 276646.080000
    280    282     1   0.10969 276646.080000
    283    284     1   0.10969 276646.080000
    283    285     1   0.10969 276646.080000
    286    287     1   0.10969 276646.080000
    286    288     1   0.10969 276646.080000
    289    290     1   0.10969 276646.080000
    289    291     1   0.10969 276646.080000
    292    293     1   0.10969 276646.080000
    292    294     1   0.10969 276646.080000
    295    296     1   0.10969 276646.080000
    295    297     1   0.10969 276646.080000
    300    329     1   0.10304 312293.760000
    301    302     1   0.10910 283424.160000
    301    303     1   0.10910 283424.160000
    304    305     1   0.10910 283424.160000
    304    306     1   0.10910 283424.160000
    307    308     1   0.10910 283424.160000
    307    309     1   0.10910 283424.160000
    310    311     1   0.10969 276646.080000
    310    312     1   0.10969 276646.080000
    313    314     1   0.10969 276646.080000
    313    315     1   0.10969 276646.080000
    316    317     1   0.10969 276646.080000
    316    318     1   0.10969 276646.080000
    319    320     1   0.10969 276646.080000
    319    321     1   0.10969 276646.080000
    322    323     1   0.10969 276646.080000
    322    324     1   0.10969 276646.080000
    325    326     1   0.10969 276646.080000
    325    327     1   0.10969 276646.080000
    330    359     1   0.10304 312293.760000
    331    332     1   0.10910 283424.160000
    331    333     1   0.10910 283424.160000
    334    335     1   0.10910 283424.160000
    334    336     1   0.10910 283424.160000
    337    338     1   0.10910 283424.160000
    337    339     1   0.10910 283424.160000
    340    341     1   0.10969 276646.080000
    340    342     1   0.10969 276646.080000
    343    344     1   0.10969 276646.080000
    343    345     1   0.10969 276646.080000
    346    347     1   0.10969 276646.080000
    346    348     1   0.10969 276646.080000
    349    350     1   0.10969 276646.080000
    349    351     1   0.10969 276646.080000
    352    353     1   0.10969 276646.080000
    352    354     1   0.10969 276646.080000
    355    356     1   0.10969 276646.080000
    355    357     1   0.10969 276646.080000
    360    389     1   0.10304 312293.760000
    361    362     1   0.10910 283424.160000
    361    363     1   0.10910 283424.160000
    364    365     1   0.10910 283424.160000
    364    366     1   0.10910 283424.160000
    367    368     1   0.10910 283424.160000
    367    369     1   0.10910 283424.160000
    370    371     1   0.10969 276646.080000
    370    372     1   0.10969 276646.080000
    373    374     1   0.10969 276646.080000
    373    375     1   0.10969 276646.080000
    376    377     1   0.10969 276646.080000
    376    378     1   0.10969 276646.080000
    379    380     1   0.10969 276646.080000
    379    381     1   0.10969 276646.080000
    382    383     1   0.10969 276646.080000
    382    384     1   0.10969 276646.080000
    385    386     1   0.10969 276646.080000
    385    387     1   0.10969 276646.080000
    390    419     1   0.10304 312293.760000
    391    392     1   0.10910 283424.160000
    391    393     1   0.10910 283424.160000
    394    395     1   0.10910 283424.160000
    394    396     1   0.10910 283424.160000
    397    398     1   0.10910 283424.160000
    397    399     1   0.10910 283424.160000
    400    401     1   0.10969 276646.080000
    400    402     1   0.10969 276646.080000
    403    404     1   0.10969 276646.080000
    403    405     1   0.10969 276646.080000
    406    407     1   0.10969 276646.080000
    406    408     1   0.10969 276646.080000
    409    410     1   0.10969 276646.080000
    409    411     1   0.10969 276646.080000
    412    413     1   0.10969 276646.080000
    412    414     1   0.10969 276646.080000
    415    416     1   0.10969 276646.080000
    415    417     1   0.10969 276646.080000
    420    449     1   0.10304 312293.760000
    421    422     1   0.10910 283424.160000
    421    423     1   0.10910 283424.160000
    424    425     1   0.10910 283424.160000
    424    426     1   0.10910 283424.160000
    427    428     1   0.10910 283424.160000
    427    429     1   0.10910 283424.160000
    430    431     1   0.10969 276646.080000
    430    432     1   0.10969 276646.080000
    433    434     1   0.10969 276646.080000
    433    435     1   0.10969 276646.080000
    436    437     1   0.10969 276646.080000
    436    438     1   0.10969 276646.080000
    439    440     1   0.10969 276646.080000
    439    441     1   0.10969 276646.080000
    442    443     1   0.10969 276646.080000
    442    444     1   0.10969 276646.080000
    445    446     1   0.10969 276646.080000
    445    447     1   0.10969 276646.080000
    450    479     1   0.10304 312293.760000
    451    452     1   0.10910 283424.160000
    451    453     1   0.10910 283424.160000
    454    455     1   0.10910 283424.160000
    454    456     1   0.10910 283424.160000
    457    458     1   0.10910 283424.160000
    457    459     1   0.10910 283424.160000
    460    461     1   0.10969 276646.080000
    460    462     1   0.10969 276646.080000
    463    464     1   0.10969 276646.080000
    463    465     1   0.10969 276646.080000
    466    467     1   0.10969 276646.080000
    466    468     1   0.10969 276646.080000
    469    470     1   0.10969 276646.080000
    469    471     1   0.10969 276646.080000
    472    473     1   0.10969 276646.080000
    472    474     1   0.10969 276646.080000
    475    476     1   0.10969 276646.080000
    475    477     1   0.10969 276646.080000
    480    509     1   0.10304 312293.760000
    481    482     1   0.10910 283424.160000
    481    483     1   0.10910 283424.160000
    484    485     1   0.10910 283424.160000
    484    486     1   0.10910 283424.160000
    487    488     1   0.10910 283424.160000
    487    489     1   0.10910 283424.160000
    490    491     1   0.10969 276646.080000
    490    492     1   0.10969 276646.080000
    493    494     1   0.10969 276646.080000
    493    495     1   0.10969 276646.080000
    496    497     1   0.10969 276646.080000
    496    498     1   0.10969 276646.080000
    499    500     1   0.10969 276646.080000
    499    501     1   0.10969 276646.080000
    502    503     1   0.10969 276646.080000
    502    504     1   0.10969 276646.080000
    505    506     1   0.10969 276646.080000
    505    507     1   0.10969 276646.080000
    510    539     1   0.10304 312293.760000
    511    512     1   0.10910 283424.160000
    511    513     1   0.10910 283424.160000
    514    515     1   0.10910 283424.160000
    514    516     1   0.10910 283424.160000
    517    518     1   0.10910 283424.160000
    517    519     1   0.10910 283424.160000
    520    521     1   0.10969 276646.080000
    520    522     1   0.10969 276646.080000
    523    524     1   0.10969 276646.080000
    523    525     1   0.10969 276646.080000
    526    527     1   0.10969 276646.080000
    526    528     1   0.10969 276646.080000
    529    530     1   0.10969 276646.080000
    529    531     1   0.10969 276646.080000
    532    533     1   0.10969 276646.080000
    532    534     1   0.10969 276646.080000
    535    536     1   0.10969 276646.080000
    535    537     1   0.10969 276646.080000
    540    569     1   0.10304 312293.760000
    541    542     1   0.10910 283424.160000
    541    543     1   0.10910 283424.160000
    544    545     1   0.10910 283424.160000
    544    546     1   0.10910 283424.160000
    547    548     1   0.10910 283424.160000
    547    549     1   0.10910 283424.160000
    550    551     1   0.10969 276646.080000
    550    552     1   0.10969 276646.080000
    553    554     1   0.10969 276646.080000
    553    555     1   0.10969 276646.080000
    556    557     1   0.10969 276646.080000
    556    558     1   0.10969 276646.080000
    559    560     1   0.10969 276646.080000
    559    561     1   0.10969 276646.080000
    562    563     1   0.10969 276646.080000
    562    564     1   0.10969 276646.080000
    565    566     1   0.10969 276646.080000
    565    567     1   0.10969 276646.080000
    570    599     1   0.10304 312293.760000
    571    572     1   0.10910 283424.160000
    571    573     1   0.10910 283424.160000
    574    575     1   0.10910 283424.160000
    574    576     1   0.10910 283424.160000
    577    578     1   0.10910 283424.160000
    577    579     1   0.10910 283424.160000
    580    581     1   0.10969 276646.080000
    580    582     1   0.10969 276646.080000
    583    584     1   0.10969 276646.080000
    583    585     1   0.10969 276646.080000
    586    587     1   0.10969 276646.080000
    586    588     1   0.10969 276646.080000
    589    590     1   0.10969 276646.080000
    589    591     1   0.10969 276646.080000
    592    593     1   0.10969 276646.080000
    592    594     1   0.10969 276646.080000
    595    596     1   0.10969 276646.080000
    595    597     1   0.10969 276646.080000
    600    629     1   0.10304 312293.760000
    601    602     1   0.10910 283424.160000
    601    603     1   0.10910 283424.160000
    604    605     1   0.10910 283424.160000
    604    606     1   0.10910 283424.160000
    607    608     1   0.10910 283424.160000
    607    609     1   0.10910 283424.160000
    610    611     1   0.10969 276646.080000
    610    612     1   0.10969 276646.080000
    613    614     1   0.10969 276646.080000
    613    615     1   0.10969 276646.080000
    616    617     1   0.10969 276646.080000
    616    618     1   0.10969 276646.080000
    619    620     1   0.10969 276646.080000
    619    621     1   0.10969 276646.080000
    622    623     1   0.10969 276646.080000
    622    624     1   0.10969 276646.080000
    625    626     1   0.10969 276646.080000
    625    627     1   0.10969 276646.080000
    630    659     1   0.10304 312293.760000
    631    632     1   0.10910 283424.160000
    631    633     1   0.10910 283424.160000
    634    635     1   0.10910 283424.160000
    634    636     1   0.10910 283424.160000
    637    638     1   0.10910 283424.160000
    637    639     1   0.10910 283424.160000
    640    641     1   0.10969 276646.080000
    640    642     1   0.10969 276646.080000
    643    644     1   0.10969 276646.080000
    643    645     1   0.10969 276646.080000
    646    647     1   0.10969 276646.080000
    646    648     1   0.10969 276646.080000
    649    650     1   0.10969 276646.080000
    649    651     1   0.10969 276646.080000
    652    653     1   0.10969 276646.080000
    652    654     1   0.10969 276646.080000
    655    656     1   0.10969 276646.080000
    655    657     1   0.10969 276646.080000
    660    689     1   0.10304 312293.760000
    661    662     1   0.10910 283424.160000
    661    663     1   0.10910 283424.160000
    664    665     1   0.10910 283424.160000
    664    666     1   0.10910 283424.160000
    667    668     1   0.10910 283424.160000
    667    669     1   0.10910 283424.160000
    670    671     1   0.10969 276646.080000
    670    672     1   0.10969 276646.080000
    673    674     1   0.10969 276646.080000
    673    675     1   0.10969 276646.080000
    676    677     1   0.10969 276646.080000
    676    678     1   0.10969 276646.080000
    679    680     1   0.10969 276646.080000
    679    681     1   0.10969 276646.080000
    682    683     1   0.10969 276646.080000
    682    684     1   0.10969 276646.080000
    685    686     1   0.10969 276646.080000
    685    687     1   0.10969 276646.080000
    690    719     1   0.10304 312293.760000
    691    692     1   0.10910 283424.160000
    691    693     1   0.10910 283424.160000
    694    695     1   0.10910 283424.160000
    694    696     1   0.10910 283424.160000
    697    698     1   0.10910 283424.160000
    697    699     1   0.10910 283424.160000
    700    701     1   0.10969 276646.080000
    700    702     1   0.10969 276646.080000
    703    704     1   0.10969 276646.080000
    703    705     1   0.10969 276646.080000
    706    707     1   0.10969 276646.080000
    706    708     1   0.10969 276646.080000
    709    710     1   0.10969 276646.080000
    709    711     1   0.10969 276646.080000
    712    713     1   0.10969 276646.080000
    712    714     1   0.10969 276646.080000
    715    716     1   0.10969 276646.080000
    715    717     1   0.10969 276646.080000
    720    749     1   0.10304 312293.760000
    721    722     1   0.10910 283424.160000
    721    723     1   0.10910 283424.160000
    724    725     1   0.10910 283424.160000
    724    726     1   0.10910 283424.160000
    727    728     1   0.10910 283424.160000
    727    729     1   0.10910 283424.160000
    730    731     1   0.10969 276646.080000
    730    732     1   0.10969 276646.080000
    733    734     1   0.10969 276646.080000
    733    735     1   0.10969 276646.080000
    736    737     1   0.10969 276646.080000
    736    738     1   0.10969 276646.080000
    739    740     1   0.10969 276646.080000
    739    741     1   0.10969 276646.080000
    742    743     1   0.10969 276646.080000
    742    744     1   0.10969 276646.080000
    745    746     1   0.10969 276646.080000
    745    747     1   0.10969 276646.080000
    750    779     1   0.10304 312293.760000
    751    752     1   0.10910 283424.160000
    751    753     1   0.10910 283424.160000
    754    755     1   0.10910 283424.160000
    754    756     1   0.10910 283424.160000
    757    758     1   0.10910 283424.160000
    757    759     1   0.10910 283424.160000
    760    761     1   0.10969 276646.080000
    760    762     1   0.10969 276646.080000
    763    764     1   0.10969 276646.080000
    763    765     1   0.10969 276646.080000
    766    767     1   0.10969 276646.080000
    766    768     1   0.10969 276646.080000
    769    770     1   0.10969 276646.080000
    769    771     1   0.10969 276646.080000
    772    773     1   0.10969 276646.080000
    772    774     1   0.10969 276646.080000
    775    776     1   0.10969 276646.080000
    775    777     1   0.10969 276646.080000
    780    809     1   0.10304 312293.760000
    781    782     1   0.10910 283424.160000
    781    783     1   0.10910 283424.160000
    784    785     1   0.10910 283424.160000
    784    786     1   0.10910 283424.160000
    787    788     1   0.10910 283424.160000
    787    789     1   0.10910 283424.160000
    790    791     1   0.10969 276646.080000
    790    792     1   0.10969 276646.080000
    793    794     1   0.10969 276646.080000
    793    795     1   0.10969 276646.080000
    796    797     1   0.10969 276646.080000
    796    798     1   0.10969 276646.080000
    799    800     1   0.10969 276646.080000
    799    801     1   0.10969 276646.080000
    802    803     1   0.10969 276646.080000
    802    804     1   0.10969 276646.080000
    805    806     1   0.10969 276646.080000
    805    807     1   0.10969 276646.080000
    810    839     1   0.10304 312293.760000
    811    812     1   0.10910 283424.160000
    811    813     1   0.10910 283424.160000
    814    815     1   0.10910 283424.160000
    814    816     1   0.10910 283424.160000
    817    818     1   0.10910 283424.160000
    817    819     1   0.10910 283424.160000
    820    821     1   0.10969 276646.080000
    820    822     1   0.10969 276646.080000
    823    824     1   0.10969 276646.080000
    823    825     1   0.10969 276646.080000
    826    827     1   0.10969 276646.080000
    826    828     1   0.10969 276646.080000
    829    830     1   0.10969 276646.080000
    829    831     1   0.10969 276646.080000
    832    833     1   0.10969 276646.080000
    832    834     1   0.10969 276646.080000
    835    836     1   0.10969 276646.080000
    835    837     1   0.10969 276646.080000
    840    869     1   0.10304 312293.760000
    841    842     1   0.10910 283424.160000
    841    843     1   0.10910 283424.160000
    844    845     1   0.10910 283424.160000
    844    846     1   0.10910 283424.160000
    847    848     1   0.10910 283424.160000
    847    849     1   0.10910 283424.160000
    850    851     1   0.10969 276646.080000
    850    852     1   0.10969 276646.080000
    853    854     1   0.10969 276646.080000
    853    855     1   0.10969 276646.080000
    856    857     1   0.10969 276646.080000
    856    858     1   0.10969 276646.080000
    859    860     1   0.10969 276646.080000
    859    861     1   0.10969 276646.080000
    862    863     1   0.10969 276646.080000
    862    864     1   0.10969 276646.080000
    865    866     1   0.10969 276646.080000
    865    867     1   0.10969 276646.080000
    870    899     1   0.10304 312293.760000
    871    872     1   0.10910 283424.160000
    871    873     1   0.10910 283424.160000
    874    875     1   0.10910 283424.160000
    874    876     1   0.10910 283424.160000
    877    878     1   0.10910 283424.160000
    877    879     1   0.10910 283424.160000
    880    881     1   0.10969 276646.080000
    880    882     1   0.10969 276646.080000
    883    884     1   0.10969 276646.080000
    883    885     1   0.10969 276646.080000
    886    887     1   0.10969 276646.080000
    886    888     1   0.10969 276646.080000
    889    890     1   0.10969 276646.080000
    889    891     1   0.10969 276646.080000
    892    893     1   0.10969 276646.080000
    892    894     1   0.10969 276646.080000
    895    896     1   0.10969 276646.080000
    895    897     1   0.10969 276646.080000
    900    929     1   0.10304 312293.760000
    901    902     1   0.10910 283424.160000
    901    903     1   0.10910 283424.160000
    904    905     1   0.10910 283424.160000
    904    906     1   0.10910 283424.160000
    907    908     1   0.10910 283424.160000
    907    909     1   0.10910 283424.160000
    910    911     1   0.10969 276646.080000
    910    912     1   0.10969 276646.080000
    913    914     1   0.10969 276646.080000
    913    915     1   0.10969 276646.080000
    916    917     1   0.10969 276646.080000
    916    918     1   0.10969 276646.080000
    919    920     1   0.10969 276646.080000
    919    921     1   0.10969 276646.080000
    922    923     1   0.10969 276646.080000
    922    924     1   0.10969 276646.080000
    925    926     1   0.10969 276646.080000
    925    927     1   0.10969 276646.080000
    930    959     1   0.10304 312293.760000
    931    932     1   0.10910 283424.160000
    931    933     1   0.10910 283424.160000
    934    935     1   0.10910 283424.160000
    934    936     1   0.10910 283424.160000
    937    938     1   0.10910 283424.160000
    937    939     1   0.10910 283424.160000
    940    941     1   0.10969 276646.080000
    940    942     1   0.10969 276646.080000
    943    944     1   0.10969 276646.080000
    943    945     1   0.10969 276646.080000
    946    947     1   0.10969 276646.080000
    946    948     1   0.10969 276646.080000
    949    950     1   0.10969 276646.080000
    949    951     1   0.10969 276646.080000
    952    953     1   0.10969 276646.080000
    952    954     1   0.10969 276646.080000
    955    956     1   0.10969 276646.080000
    955    957     1   0.10969 276646.080000
    960    989     1   0.10304 312293.760000
    961    962     1   0.10910 283424.160000
    961    963     1   0.10910 283424.160000
    964    965     1   0.10910 283424.160000
    964    966     1   0.10910 283424.160000
    967    968     1   0.10910 283424.160000
    967    969     1   0.10910 283424.160000
    970    971     1   0.10969 276646.080000
    970    972     1   0.10969 276646.080000
    973    974     1   0.10969 276646.080000
    973    975     1   0.10969 276646.080000
    976    977     1   0.10969 276646.080000
    976    978     1   0.10969 276646.080000
    979    980     1   0.10969 276646.080000
    979    981     1   0.10969 276646.080000
    982    983     1   0.10969 276646.080000
    982    984     1   0.10969 276646.080000
    985    986     1   0.10969 276646.080000
    985    987     1   0.10969 276646.080000
    990   1019     1   0.10304 312293.760000
    991    992     1   0.10910 283424.160000
    991    993     1   0.10910 283424.160000
    994    995     1   0.10910 283424.160000
    994    996     1   0.10910 283424.160000
    997    998     1   0.10910 283424.160000
    997    999     1   0.10910 283424.160000
   1000   1001     1   0.10969 276646.080000
   1000   1002     1   0.10969 276646.080000
   1003   1004     1   0.10969 276646.080000
   1003   1005     1   0.10969 276646.080000
   1006   1007     1   0.10969 276646.080000
   1006   1008     1   0.10969 276646.080000
   1009   1010     1   0.10969 276646.080000
   1009   1011     1   0.10969 276646.080000
   1012   1013     1   0.10969 276646.080000
   1012   1014     1   0.10969 276646.080000
   1015   1016     1   0.10969 276646.080000
   1015   1017     1   0.10969 276646.080000
   1020   1049     1   0.10304 312293.760000
   1021   1022     1   0.10910 283424.160000
   1021   1023     1   0.10910 283424.160000
   1024   1025     1   0.10910 283424.160000
   1024   1026     1   0.10910 283424.160000
   1027   1028     1   0.10910 283424.160000
   1027   1029     1   0.10910 283424.160000
   1030   1031     1   0.10969 276646.080000
   1030   1032     1   0.10969 276646.080000
   1033   1034     1   0.10969 276646.080000
   1033   1035     1   0.10969 276646.080000
   1036   1037     1   0.10969 276646.080000
   1036   1038     1   0.10969 276646.080000
   1039   1040     1   0.10969 276646.080000
   1039   1041     1   0.10969 276646.080000
   1042   1043     1   0.10969 276646.080000
   1042   1044     1   0.10969 276646.080000
   1045   1046     1   0.10969 276646.080000
   1045   1047     1   0.10969 276646.080000
   1050   1079     1   0.10304 312293.760000
   1051   1052     1   0.10910 283424.160000
   1051   1053     1   0.10910 283424.160000
   1054   1055     1   0.10910 283424.160000
   1054   1056     1   0.10910 283424.160000
   1057   1058     1   0.10910 283424.160000
   1057   1059     1   0.10910 283424.160000
   1060   1061     1   0.10969 276646.080000
   1060   1062     1   0.10969 276646.080000
   1063   1064     1   0.10969 276646.080000
   1063   1065     1   0.10969 276646.080000
   1066   1067     1   0.10969 276646.080000
   1066   1068     1   0.10969 276646.080000
   1069   1070     1   0.10969 276646.080000
   1069   1071     1   0.10969 276646.080000
   1072   1073     1   0.10969 276646.080000
   1072   1074     1   0.10969 276646.080000
   1075   1076     1   0.10969 276646.080000
   1075   1077     1   0.10969 276646.080000
   1080   1109     1   0.10304 312293.760000
   1081   1082     1   0.10910 283424.160000
   1081   1083     1   0.10910 283424.160000
   1084   1085     1   0.10910 283424.160000
   1084   1086     1   0.10910 283424.160000
   1087   1088     1   0.10910 283424.160000
   1087   1089     1   0.10910 283424.160000
   1090   1091     1   0.10969 276646.080000
   1090   1092     1   0.10969 276646.080000
   1093   1094     1   0.10969 276646.080000
   1093   1095     1   0.10969 276646.080000
   1096   1097     1   0.10969 276646.080000
   1096   1098     1   0.10969 276646.080000
   1099   1100     1   0.10969 276646.080000
   1099   1101     1   0.10969 276646.080000
   1102   1103     1   0.10969 276646.080000
   1102   1104     1   0.10969 276646.080000
   1105   1106     1   0.10969 276646.080000
   1105   1107     1   0.10969 276646.080000
   1110   1139     1   0.10304 312293.760000
   1111   1112     1   0.10910 283424.160000
   1111   1113     1   0.10910 283424.160000
   1114   1115     1   0.10910 283424.160000
   1114   1116     1   0.10910 283424.160000
   1117   1118     1   0.10910 283424.160000
   1117   1119     1   0.10910 283424.160000
   1120   1121     1   0.10969 276646.080000
   1120   1122     1   0.10969 276646.080000
   1123   1124     1   0.10969 276646.080000
   1123   1125     1   0.10969 276646.080000
   1126   1127     1   0.10969 276646.080000
   1126   1128     1   0.10969 276646.080000
   1129   1130     1   0.10969 276646.080000
   1129   1131     1   0.10969 276646.080000
   1132   1133     1   0.10969 276646.080000
   1132   1134     1   0.10969 276646.080000
   1135   1136     1   0.10969 276646.080000
   1135   1137     1   0.10969 276646.080000
   1140   1169     1   0.10304 312293.760000
   1141   1142     1   0.10910 283424.160000
   1141   1143     1   0.10910 283424.160000
   1144   1145     1   0.10910 283424.160000
   1144   1146     1   0.10910 283424.160000
   1147   1148     1   0.10910 283424.160000
   1147   1149     1   0.10910 283424.160000
   1150   1151     1   0.10969 276646.080000
   1150   1152     1   0.10969 276646.080000
   1153   1154     1   0.10969 276646.080000
   1153   1155     1   0.10969 276646.080000
   1156   1157     1   0.10969 276646.080000
   1156   1158     1   0.10969 276646.080000
   1159   1160     1   0.10969 276646.080000
   1159   1161     1   0.10969 276646.080000
   1162   1163     1   0.10969 276646.080000
   1162   1164     1   0.10969 276646.080000
   1165   1166     1   0.10969 276646.080000
   1165   1167     1   0.10969 276646.080000
   1170   1199     1   0.10304 312293.760000
   1171   1172     1   0.10910 283424.160000
   1171   1173     1   0.10910 283424.160000
   1174   1175     1   0.10910 283424.160000
   1174   1176     1   0.10910 283424.160000
   1177   1178     1   0.10910 283424.160000
   1177   1179     1   0.10910 283424.160000
   1180   1181     1   0.10969 276646.080000
   1180   1182     1   0.10969 276646.080000
   1183   1184     1   0.10969 276646.080000
   1183   1185     1   0.10969 276646.080000
   1186   1187     1   0.10969 276646.080000
   1186   1188     1   0.10969 276646.080000
   1189   1190     1   0.10969 276646.080000
   1189   1191     1   0.10969 276646.080000
   1192   1193     1   0.10969 276646.080000
   1192   1194     1   0.10969 276646.080000
   1195   1196     1   0.10969 276646.080000
   1195   1197     1   0.10969 276646.080000
   1200   1229     1   0.10304 312293.760000
   1201   1202     1   0.10910 283424.160000
   1201   1203     1   0.10910 283424.160000
   1204   1205     1   0.10910 283424.160000
   1204   1206     1   0.10910 283424.160000
   1207   1208     1   0.10910 283424.160000
   1207   1209     1   0.10910 283424.160000
   1210   1211     1   0.10969 276646.080000
   1210   1212     1   0.10969 276646.080000
   1213   1214     1   0.10969 276646.080000
   1213   1215     1   0.10969 276646.080000
   1216   1217     1   0.10969 276646.080000
   1216   1218     1   0.10969 276646.080000
   1219   1220     1   0.10969 276646.080000
   1219   1221     1   0.10969 276646.080000
   1222   1223     1   0.10969 276646.080000
   1222   1224     1   0.10969 276646.080000
   1225   1226     1   0.10969 276646.080000
   1225   1227     1   0.10969 276646.080000
   1230   1259     1   0.10304 312293.760000
   1231   1232     1   0.10910 283424.160000
   1231   1233     1   0.10910 283424.160000
   1234   1235     1   0.10910 283424.160000
   1234   1236     1   0.10910 283424.160000
   1237   1238     1   0.10910 283424.160000
   1237   1239     1   0.10910 283424.160000
   1240   1241     1   0.10969 276646.080000
   1240   1242     1   0.10969 276646.080000
   1243   1244     1   0.10969 276646.080000
   1243   1245     1   0.10969 276646.080000
   1246   1247     1   0.10969 276646.080000
   1246   1248     1   0.10969 276646.080000
   1249   1250     1   0.10969 276646.080000
   1249   1251     1   0.10969 276646.080000
   1252   1253     1   0.10969 276646.080000
   1252   1254     1   0.10969 276646.080000
   1255   1256     1   0.10969 276646.080000
   1255   1257     1   0.10969 276646.080000
   1260   1289     1   0.10304 312293.760000
   1261   1262     1   0.10910 283424.160000
   1261   1263     1   0.10910 283424.160000
   1264   1265     1   0.10910 283424.160000
   1264   1266     1   0.10910 283424.160000
   1267   1268     1   0.10910 283424.160000
   1267   1269     1   0.10910 283424.160000
   1270   1271     1   0.10969 276646.080000
   1270   1272     1   0.10969 276646.080000
   1273   1274     1   0.10969 276646.080000
   1273   1275     1   0.10969 276646.080000
   1276   1277     1   0.10969 276646.080000
   1276   1278     1   0.10969 276646.080000
   1279   1280     1   0.10969 276646.080000
   1279   1281     1   0.10969 276646.080000
   1282   1283     1   0.10969 276646.080000
   1282   1284     1   0.10969 276646.080000
   1285   1286     1   0.10969 276646.080000
   1285   1287     1   0.10969 276646.080000
   1290   1319     1   0.10304 312293.760000
   1291   1292     1   0.10910 283424.160000
   1291   1293     1   0.10910 283424.160000
   1294   1295     1   0.10910 283424.160000
   1294   1296     1   0.10910 283424.160000
   1297   1298     1   0.10910 283424.160000
   1297   1299     1   0.10910 283424.160000
   1300   1301     1   0.10969 276646.080000
   1300   1302     1   0.10969 276646.080000
   1303   1304     1   0.10969 276646.080000
   1303   1305     1   0.10969 276646.080000
   1306   1307     1   0.10969 276646.080000
   1306   1308     1   0.10969 276646.080000
   1309   1310     1   0.10969 276646.080000
   1309   1311     1   0.10969 276646.080000
   1312   1313     1   0.10969 276646.080000
   1312   1314     1   0.10969 276646.080000
   1315   1316     1   0.10969 276646.080000
   1315   1317     1   0.10969 276646.080000
   1320   1349     1   0.10304 312293.760000
   1321   1322     1   0.10910 283424.160000
   1321   1323     1   0.10910 283424.160000
   1324   1325     1   0.10910 283424.160000
   1324   1326     1   0.10910 283424.160000
   1327   1328     1   0.10910 283424.160000
   1327   1329     1   0.10910 283424.160000
   1330   1331     1   0.10969 276646.080000
   1330   1332     1   0.10969 276646.080000
   1333   1334     1   0.10969 276646.080000
   1333   1335     1   0.10969 276646.080000
   1336   1337     1   0.10969 276646.080000
   1336   1338     1   0.10969 276646.080000
   1339   1340     1   0.10969 276646.080000
   1339   1341     1   0.10969 276646.080000
   1342   1343     1   0.10969 276646.080000
   1342   1344     1   0.10969 276646.080000
   1345   1346     1   0.10969 276646.080000
   1345   1347     1   0.10969 276646.080000
   1350   1379     1   0.10304 312293.760000
   1351   1352     1   0.10910 283424.160000
   1351   1353     1   0.10910 283424.160000
   1354   1355     1   0.10910 283424.160000
   1354   1356     1   0.10910 283424.160000
   1357   1358     1   0.10910 283424.160000
   1357   1359     1   0.10910 283424.160000
   1360   1361     1   0.10969 276646.080000
   1360   1362     1   0.10969 276646.080000
   1363   1364     1   0.10969 276646.080000
   1363   1365     1   0.10969 276646.080000
   1366   1367     1   0.10969 276646.080000
   1366   1368     1   0.10969 276646.080000
   1369   1370     1   0.10969 276646.080000
   1369   1371     1   0.10969 276646.080000
   1372   1373     1   0.10969 276646.080000
   1372   1374     1   0.10969 276646.080000
   1375   1376     1   0.10969 276646.080000
   1375   1377     1   0.10969 276646.080000
   1380   1409     1   0.10304 312293.760000
   1381   1382     1   0.10910 283424.160000
   1381   1383     1   0.10910 283424.160000
   1384   1385     1   0.10910 283424.160000
   1384   1386     1   0.10910 283424.160000
   1387   1388     1   0.10910 283424.160000
   1387   1389     1   0.10910 283424.160000
   1390   1391     1   0.10969 276646.080000
   1390   1392     1   0.10969 276646.080000
   1393   1394     1   0.10969 276646.080000
   1393   1395     1   0.10969 276646.080000
   1396   1397     1   0.10969 276646.080000
   1396   1398     1   0.10969 276646.080000
   1399   1400     1   0.10969 276646.080000
   1399   1401     1   0.10969 276646.080000
   1402   1403     1   0.10969 276646.080000
   1402   1404     1   0.10969 276646.080000
   1405   1406     1   0.10969 276646.080000
   1405   1407     1   0.10969 276646.080000
   1410   1439     1   0.10304 312293.760000
   1411   1412     1   0.10910 283424.160000
   1411   1413     1   0.10910 283424.160000
   1414   1415     1   0.10910 283424.160000
   1414   1416     1   0.10910 283424.160000
   1417   1418     1   0.10910 283424.160000
   1417   1419     1   0.10910 283424.160000
   1420   1421     1   0.10969 276646.080000
   1420   1422     1   0.10969 276646.080000
   1423   1424     1   0.10969 276646.080000
   1423   1425     1   0.10969 276646.080000
   1426   1427     1   0.10969 276646.080000
   1426   1428     1   0.10969 276646.080000
   1429   1430     1   0.10969 276646.080000
   1429   1431     1   0.10969 276646.080000
   1432   1433     1   0.10969 276646.080000
   1432   1434     1   0.10969 276646.080000
   1435   1436     1   0.10969 276646.080000
   1435   1437     1   0.10969 276646.080000
   1440   1469     1   0.10304 312293.760000
   1441   1442     1   0.10910 283424.160000
   1441   1443     1   0.10910 283424.160000
   1444   1445     1   0.10910 283424.160000
   1444   1446     1   0.10910 283424.160000
   1447   1448     1   0.10910 283424.160000
   1447   1449     1   0.10910 283424.160000
   1450   1451     1   0.10969 276646.080000
   1450   1452     1   0.10969 276646.080000
   1453   1454     1   0.10969 276646.080000
   1453   1455     1   0.10969 276646.080000
   1456   1457     1   0.10969 276646.080000
   1456   1458     1   0.10969 276646.080000
   1459   1460     1   0.10969 276646.080000
   1459   1461     1   0.10969 276646.080000
   1462   1463     1   0.10969 276646.080000
   1462   1464     1   0.10969 276646.080000
   1465   1466     1   0.10969 276646.080000
   1465   1467     1   0.10969 276646.080000
   1470   1499     1   0.10304 312293.760000
   1471   1472     1   0.10910 283424.160000
   1471   1473     1   0.10910 283424.160000
   1474   1475     1   0.10910 283424.160000
   1474   1476     1   0.10910 283424.160000
   1477   1478     1   0.10910 283424.160000
   1477   1479     1   0.10910 283424.160000
   1480   1481     1   0.10969 276646.080000
   1480   1482     1   0.10969 276646.080000
   1483   1484     1   0.10969 276646.080000
   1483   1485     1   0.10969 276646.080000
   1486   1487     1   0.10969 276646.080000
   1486   1488     1   0.10969 276646.080000
   1489   1490     1   0.10969 276646.080000
   1489   1491     1   0.10969 276646.080000
   1492   1493     1   0.10969 276646.080000
   1492   1494     1   0.10969 276646.080000
   1495   1496     1   0.10969 276646.080000
   1495   1497     1   0.10969 276646.080000
   1500   1529     1   0.10304 312293.760000
   1501   1502     1   0.10910 283424.160000
   1501   1503     1   0.10910 283424.160000
   1504   1505     1   0.10910 283424.160000
   1504   1506     1   0.10910 283424.160000
   1507   1508     1   0.10910 283424.160000
   1507   1509     1   0.10910 283424.160000
   1510   1511     1   0.10969 276646.080000
   1510   1512     1   0.10969 276646.080000
   1513   1514     1   0.10969 276646.080000
   1513   1515     1   0.10969 276646.080000
   1516   1517     1   0.10969 276646.080000
   1516   1518     1   0.10969 276646.080000
   1519   1520     1   0.10969 276646.080000
   1519   1521     1   0.10969 276646.080000
   1522   1523     1   0.10969 276646.080000
   1522   1524     1   0.10969 276646.080000
   1525   1526     1   0.10969 276646.080000
   1525   1527     1   0.10969 276646.080000
   1530   1559     1   0.10304 312293.760000
   1531   1532     1   0.10910 283424.160000
   1531   1533     1   0.10910 283424.160000
   1534   1535     1   0.10910 283424.160000
   1534   1536     1   0.10910 283424.160000
   1537   1538     1   0.10910 283424.160000
   1537   1539     1   0.10910 283424.160000
   1540   1541     1   0.10969 276646.080000
   1540   1542     1   0.10969 276646.080000
   1543   1544     1   0.10969 276646.080000
   1543   1545     1   0.10969 276646.080000
   1546   1547     1   0.10969 276646.080000
   1546   1548     1   0.10969 276646.080000
   1549   1550     1   0.10969 276646.080000
   1549   1551     1   0.10969 276646.080000
   1552   1553     1   0.10969 276646.080000
   1552   1554     1   0.10969 276646.080000
   1555   1556     1   0.10969 276646.080000
   1555   1557     1   0.10969 276646.080000
   1560   1589     1   0.10304 312293.760000
   1561   1562     1   0.10910 283424.160000
   1561   1563     1   0.10910 283424.160000
   1564   1565     1   0.10910 283424.160000
   1564   1566     1   0.10910 283424.160000
   1567   1568     1   0.10910 283424.160000
   1567   1569     1   0.10910 283424.160000
   1570   1571     1   0.10969 276646.080000
   1570   1572     1   0.10969 276646.080000
   1573   1574     1   0.10969 276646.080000
   1573   1575     1   0.10969 276646.080000
   1576   1577     1   0.10969 276646.080000
   1576   1578     1   0.10969 276646.080000
   1579   1580     1   0.10969 276646.080000
   1579   1581     1   0.10969 276646.080000
   1582   1583     1   0.10969 276646.080000
   1582   1584     1   0.10969 276646.080000
   1585   1586     1   0.10969 276646.080000
   1585   1587     1   0.10969 276646.080000
   1590   1619     1   0.10304 312293.760000
   1591   1592     1   0.10910 283424.160000
   1591   1593     1   0.10910 283424.160000
   1594   1595     1   0.10910 283424.160000
   1594   1596     1   0.10910 283424.160000
   1597   1598     1   0.10910 283424.160000
   1597   1599     1   0.10910 283424.160000
   1600   1601     1   0.10969 276646.080000
   1600   1602     1   0.10969 276646.080000
   1603   1604     1   0.10969 276646.080000
   1603   1605     1   0.10969 276646.080000
   1606   1607     1   0.10969 276646.080000
   1606   1608     1   0.10969 276646.080000
   1609   1610     1   0.10969 276646.080000
   1609   1611     1   0.10969 276646.080000
   1612   1613     1   0.10969 276646.080000
   1612   1614     1   0.10969 276646.080000
   1615   1616     1   0.10969 276646.080000
   1615   1617     1   0.10969 276646.080000
   1620   1649     1   0.10304 312293.760000
   1621   1622     1   0.10910 283424.160000
   1621   1623     1   0.10910 283424.160000
   1624   1625     1   0.10910 283424.160000
   1624   1626     1   0.10910 283424.160000
   1627   1628     1   0.10910 283424.160000
   1627   1629     1   0.10910 283424.160000
   1630   1631     1   0.10969 276646.080000
   1630   1632     1   0.10969 276646.080000
   1633   1634     1   0.10969 276646.080000
   1633   1635     1   0.10969 276646.080000
   1636   1637     1   0.10969 276646.080000
   1636   1638     1   0.10969 276646.080000
   1639   1640     1   0.10969 276646.080000
   1639   1641     1   0.10969 276646.080000
   1642   1643     1   0.10969 276646.080000
   1642   1644     1   0.10969 276646.080000
   1645   1646     1   0.10969 276646.080000
   1645   1647     1   0.10969 276646.080000
   1650   1679     1   0.10304 312293.760000
   1651   1652     1   0.10910 283424.160000
   1651   1653     1   0.10910 283424.160000
   1654   1655     1   0.10910 283424.160000
   1654   1656     1   0.10910 283424.160000
   1657   1658     1   0.10910 283424.160000
   1657   1659     1   0.10910 283424.160000
   1660   1661     1   0.10969 276646.080000
   1660   1662     1   0.10969 276646.080000
   1663   1664     1   0.10969 276646.080000
   1663   1665     1   0.10969 276646.080000
   1666   1667     1   0.10969 276646.080000
   1666   1668     1   0.10969 276646.080000
   1669   1670     1   0.10969 276646.080000
   1669   1671     1   0.10969 276646.080000
   1672   1673     1   0.10969 276646.080000
   1672   1674     1   0.10969 276646.080000
   1675   1676     1   0.10969 276646.080000
   1675   1677     1   0.10969 276646.080000
   1680   1709     1   0.10304 312293.760000
   1681   1682     1   0.10910 283424.160000
   1681   1683     1   0.10910 283424.160000
   1684   1685     1   0.10910 283424.160000
   1684   1686     1   0.10910 283424.160000
   1687   1688     1   0.10910 283424.160000
   1687   1689     1   0.10910 283424.160000
   1690   1691     1   0.10969 276646.080000
   1690   1692     1   0.10969 276646.080000
   1693   1694     1   0.10969 276646.080000
   1693   1695     1   0.10969 276646.080000
   1696   1697     1   0.10969 276646.080000
   1696   1698     1   0.10969 276646.080000
   1699   1700     1   0.10969 276646.080000
   1699   1701     1   0.10969 276646.080000
   1702   1703     1   0.10969 276646.080000
   1702   1704     1   0.10969 276646.080000
   1705   1706     1   0.10969 276646.080000
   1705   1707     1   0.10969 276646.080000
   1710   1739     1   0.10304 312293.760000
   1711   1712     1   0.10910 283424.160000
   1711   1713     1   0.10910 283424.160000
   1714   1715     1   0.10910 283424.160000
   1714   1716     1   0.10910 283424.160000
   1717   1718     1   0.10910 283424.160000
   1717   1719     1   0.10910 283424.160000
   1720   1721     1   0.10969 276646.080000
   1720   1722     1   0.10969 276646.080000
   1723   1724     1   0.10969 276646.080000
   1723   1725     1   0.10969 276646.080000
   1726   1727     1   0.10969 276646.080000
   1726   1728     1   0.10969 276646.080000
   1729   1730     1   0.10969 276646.080000
   1729   1731     1   0.10969 276646.080000
   1732   1733     1   0.10969 276646.080000
   1732   1734     1   0.10969 276646.080000
   1735   1736     1   0.10969 276646.080000
   1735   1737     1   0.10969 276646.080000
   1740   1769     1   0.10304 312293.760000
   1741   1742     1   0.10910 283424.160000
   1741   1743     1   0.10910 283424.160000
   1744   1745     1   0.10910 283424.160000
   1744   1746     1   0.10910 283424.160000
   1747   1748     1   0.10910 283424.160000
   1747   1749     1   0.10910 283424.160000
   1750   1751     1   0.10969 276646.080000
   1750   1752     1   0.10969 276646.080000
   1753   1754     1   0.10969 276646.080000
   1753   1755     1   0.10969 276646.080000
   1756   1757     1   0.10969 276646.080000
   1756   1758     1   0.10969 276646.080000
   1759   1760     1   0.10969 276646.080000
   1759   1761     1   0.10969 276646.080000
   1762   1763     1   0.10969 276646.080000
   1762   1764     1   0.10969 276646.080000
   1765   1766     1   0.10969 276646.080000
   1765   1767     1   0.10969 276646.080000
   1770   1799     1   0.10304 312293.760000
   1771   1772     1   0.10910 283424.160000
   1771   1773     1   0.10910 283424.160000
   1774   1775     1   0.10910 283424.160000
   1774   1776     1   0.10910 283424.160000
   1777   1778     1   0.10910 283424.160000
   1777   1779     1   0.10910 283424.160000
   1780   1781     1   0.10969 276646.080000
   1780   1782     1   0.10969 276646.080000
   1783   1784     1   0.10969 276646.080000
   1783   1785     1   0.10969 276646.080000
   1786   1787     1   0.10969 276646.080000
   1786   1788     1   0.10969 276646.080000
   1789   1790     1   0.10969 276646.080000
   1789   1791     1   0.10969 276646.080000
   1792   1793     1   0.10969 276646.080000
   1792   1794     1   0.10969 276646.080000
   1795   1796     1   0.10969 276646.080000
   1795   1797     1   0.10969 276646.080000
   1800   1829     1   0.10304 312293.760000
   1801   1802     1   0.10910 283424.160000
   1801   1803     1   0.10910 283424.160000
   1804   1805     1   0.10910 283424.160000
   1804   1806     1   0.10910 283424.160000
   1807   1808     1   0.10910 283424.160000
   1807   1809     1   0.10910 283424.160000
   1810   1811     1   0.10969 276646.080000
   1810   1812     1   0.10969 276646.080000
   1813   1814     1   0.10969 276646.080000
   1813   1815     1   0.10969 276646.080000
   1816   1817     1   0.10969 276646.080000
   1816   1818     1   0.10969 276646.080000
   1819   1820     1   0.10969 276646.080000
   1819   1821     1   0.10969 276646.080000
   1822   1823     1   0.10969 276646.080000
   1822   1824     1   0.10969 276646.080000
   1825   1826     1   0.10969 276646.080000
   1825   1827     1   0.10969 276646.080000
   1830   1859     1   0.10304 312293.760000
   1831   1832     1   0.10910 283424.160000
   1831   1833     1   0.10910 283424.160000
   1834   1835     1   0.10910 283424.160000
   1834   1836     1   0.10910 283424.160000
   1837   1838     1   0.10910 283424.160000
   1837   1839     1   0.10910 283424.160000
   1840   1841     1   0.10969 276646.080000
   1840   1842     1   0.10969 276646.080000
   1843   1844     1   0.10969 276646.080000
   1843   1845     1   0.10969 276646.080000
   1846   1847     1   0.10969 276646.080000
   1846   1848     1   0.10969 276646.080000
   1849   1850     1   0.10969 276646.080000
   1849   1851     1   0.10969 276646.080000
   1852   1853     1   0.10969 276646.080000
   1852   1854     1   0.10969 276646.080000
   1855   1856     1   0.10969 276646.080000
   1855   1857     1   0.10969 276646.080000
   1860   1889     1   0.10304 312293.760000
   1861   1862     1   0.10910 283424.160000
   1861   1863     1   0.10910 283424.160000
   1864   1865     1   0.10910 283424.160000
   1864   1866     1   0.10910 283424.160000
   1867   1868     1   0.10910 283424.160000
   1867   1869     1   0.10910 283424.160000
   1870   1871     1   0.10969 276646.080000
   1870   1872     1   0.10969 276646.080000
   1873   1874     1   0.10969 276646.080000
   1873   1875     1   0.10969 276646.080000
   1876   1877     1   0.10969 276646.080000
   1876   1878     1   0.10969 276646.080000
   1879   1880     1   0.10969 276646.080000
   1879   1881     1   0.10969 276646.080000
   1882   1883     1   0.10969 276646.080000
   1882   1884     1   0.10969 276646.080000
   1885   1886     1   0.10969 276646.080000
   1885   1887     1   0.10969 276646.080000
   1890   1919     1   0.10304 312293.760000
   1891   1892     1   0.10910 283424.160000
   1891   1893     1   0.10910 283424.160000
   1894   1895     1   0.10910 283424.160000
   1894   1896     1   0.10910 283424.160000
   1897   1898     1   0.10910 283424.160000
   1897   1899     1   0.10910 283424.160000
   1900   1901     1   0.10969 276646.080000
   1900   1902     1   0.10969 276646.080000
   1903   1904     1   0.10969 276646.080000
   1903   1905     1   0.10969 276646.080000
   1906   1907     1   0.10969 276646.080000
   1906   1908     1   0.10969 276646.080000
   1909   1910     1   0.10969 276646.080000
   1909   1911     1   0.10969 276646.080000
   1912   1913     1   0.10969 276646.080000
   1912   1914     1   0.10969 276646.080000
   1915   1916     1   0.10969 276646.080000
   1915   1917     1   0.10969 276646.080000
   1920   1949     1   0.10304 312293.760000
   1921   1922     1   0.10910 283424.160000
   1921   1923     1   0.10910 283424.160000
   1924   1925     1   0.10910 283424.160000
   1924   1926     1   0.10910 283424.160000
   1927   1928     1   0.10910 283424.160000
   1927   1929     1   0.10910 283424.160000
   1930   1931     1   0.10969 276646.080000
   1930   1932     1   0.10969 276646.080000
   1933   1934     1   0.10969 276646.080000
   1933   1935     1   0.10969 276646.080000
   1936   1937     1   0.10969 276646.080000
   1936   1938     1   0.10969 276646.080000
   1939   1940     1   0.10969 276646.080000
   1939   1941     1   0.10969 276646.080000
   1942   1943     1   0.10969 276646.080000
   1942   1944     1   0.10969 276646.080000
   1945   1946     1   0.10969 276646.080000
   1945   1947     1   0.10969 276646.080000
   1950   1979     1   0.10304 312293.760000
   1951   1952     1   0.10910 283424.160000
   1951   1953     1   0.10910 283424.160000
   1954   1955     1   0.10910 283424.160000
   1954   1956     1   0.10910 283424.160000
   1957   1958     1   0.10910 283424.160000
   1957   1959     1   0.10910 283424.160000
   1960   1961     1   0.10969 276646.080000
   1960   1962     1   0.10969 276646.080000
   1963   1964     1   0.10969 276646.080000
   1963   1965     1   0.10969 276646.080000
   1966   1967     1   0.10969 276646.080000
   1966   1968     1   0.10969 276646.080000
   1969   1970     1   0.10969 276646.080000
   1969   1971     1   0.10969 276646.080000
   1972   1973     1   0.10969 276646.080000
   1972   1974     1   0.10969 276646.080000
   1975   1976     1   0.10969 276646.080000
   1975   1977     1   0.10969 276646.080000
   1980   2009     1   0.10304 312293.760000
   1981   1982     1   0.10910 283424.160000
   1981   1983     1   0.10910 283424.160000
   1984   1985     1   0.10910 283424.160000
   1984   1986     1   0.10910 283424.160000
   1987   1988     1   0.10910 283424.160000
   1987   1989     1   0.10910 283424.160000
   1990   1991     1   0.10969 276646.080000
   1990   1992     1   0.10969 276646.080000
   1993   1994     1   0.10969 276646.080000
   1993   1995     1   0.10969 276646.080000
   1996   1997     1   0.10969 276646.080000
   1996   1998     1   0.10969 276646.080000
   1999   2000     1   0.10969 276646.080000
   1999   2001     1   0.10969 276646.080000
   2002   2003     1   0.10969 276646.080000
   2002   2004     1   0.10969 276646.080000
   2005   2006     1   0.10969 276646.080000
   2005   2007     1   0.10969 276646.080000
   2010   2039     1   0.10304 312293.760000
   2011   2012     1   0.10910 283424.160000
   2011   2013     1   0.10910 283424.160000
   2014   2015     1   0.10910 283424.160000
   2014   2016     1   0.10910 283424.160000
   2017   2018     1   0.10910 283424.160000
   2017   2019     1   0.10910 283424.160000
   2020   2021     1   0.10969 276646.080000
   2020   2022     1   0.10969 276646.080000
   2023   2024     1   0.10969 276646.080000
   2023   2025     1   0.10969 276646.080000
   2026   2027     1   0.10969 276646.080000
   2026   2028     1   0.10969 276646.080000
   2029   2030     1   0.10969 276646.080000
   2029   2031     1   0.10969 276646.080000
   2032   2033     1   0.10969 276646.080000
   2032   2034     1   0.10969 276646.080000
   2035   2036     1   0.10969 276646.080000
   2035   2037     1   0.10969 276646.080000
   2040   2069     1   0.10304 312293.760000
   2041   2042     1   0.10910 283424.160000
   2041   2043     1   0.10910 283424.160000
   2044   2045     1   0.10910 283424.160000
   2044   2046     1   0.10910 283424.160000
   2047   2048     1   0.10910 283424.160000
   2047   2049     1   0.10910 283424.160000
   2050   2051     1   0.10969 276646.080000
   2050   2052     1   0.10969 276646.080000
   2053   2054     1   0.10969 276646.080000
   2053   2055     1   0.10969 276646.080000
   2056   2057     1   0.10969 276646.080000
   2056   2058     1   0.10969 276646.080000
   2059   2060     1   0.10969 276646.080000
   2059   2061     1   0.10969 276646.080000
   2062   2063     1   0.10969 276646.080000
   2062   2064     1   0.10969 276646.080000
   2065   2066     1   0.10969 276646.080000
   2065   2067     1   0.10969 276646.080000
   2070   2099     1   0.10304 312293.760000
   2071   2072     1   0.10910 283424.160000
   2071   2073     1   0.10910 283424.160000
   2074   2075     1   0.10910 283424.160000
   2074   2076     1   0.10910 283424.160000
   2077   2078     1   0.10910 283424.160000
   2077   2079     1   0.10910 283424.160000
   2080   2081     1   0.10969 276646.080000
   2080   2082     1   0.10969 276646.080000
   2083   2084     1   0.10969 276646.080000
   2083   2085     1   0.10969 276646.080000
   2086   2087     1   0.10969 276646.080000
   2086   2088     1   0.10969 276646.080000
   2089   2090     1   0.10969 276646.080000
   2089   2091     1   0.10969 276646.080000
   2092   2093     1   0.10969 276646.080000
   2092   2094     1   0.10969 276646.080000
   2095   2096     1   0.10969 276646.080000
   2095   2097     1   0.10969 276646.080000
   2100   2129     1   0.10304 312293.760000
   2101   2102     1   0.10910 283424.160000
   2101   2103     1   0.10910 283424.160000
   2104   2105     1   0.10910 283424.160000
   2104   2106     1   0.10910 283424.160000
   2107   2108     1   0.10910 283424.160000
   2107   2109     1   0.10910 283424.160000
   2110   2111     1   0.10969 276646.080000
   2110   2112     1   0.10969 276646.080000
   2113   2114     1   0.10969 276646.080000
   2113   2115     1   0.10969 276646.080000
   2116   2117     1   0.10969 276646.080000
   2116   2118     1   0.10969 276646.080000
   2119   2120     1   0.10969 276646.080000
   2119   2121     1   0.10969 276646.080000
   2122   2123     1   0.10969 276646.080000
   2122   2124     1   0.10969 276646.080000
   2125   2126     1   0.10969 276646.080000
   2125   2127     1   0.10969 276646.080000
   2130   2159     1   0.10304 312293.760000
   2131   2132     1   0.10910 283424.160000
   2131   2133     1   0.10910 283424.160000
   2134   2135     1   0.10910 283424.160000
   2134   2136     1   0.10910 283424.160000
   2137   2138     1   0.10910 283424.160000
   2137   2139     1   0.10910 283424.160000
   2140   2141     1   0.10969 276646.080000
   2140   2142     1   0.10969 276646.080000
   2143   2144     1   0.10969 276646.080000
   2143   2145     1   0.10969 276646.080000
   2146   2147     1   0.10969 276646.080000
   2146   2148     1   0.10969 276646.080000
   2149   2150     1   0.10969 276646.080000
   2149   2151     1   0.10969 276646.080000
   2152   2153     1   0.10969 276646.080000
   2152   2154     1   0.10969 276646.080000
   2155   2156     1   0.10969 276646.080000
   2155   2157     1   0.10969 276646.080000
   2160   2189     1   0.10304 312293.760000
   2161   2162     1   0.10910 283424.160000
   2161   2163     1   0.10910 283424.160000
   2164   2165     1   0.10910 283424.160000
   2164   2166     1   0.10910 283424.160000
   2167   2168     1   0.10910 283424.160000
   2167   2169     1   0.10910 283424.160000
   2170   2171     1   0.10969 276646.080000
   2170   2172     1   0.10969 276646.080000
   2173   2174     1   0.10969 276646.080000
   2173   2175     1   0.10969 276646.080000
   2176   2177     1   0.10969 276646.080000
   2176   2178     1   0.10969 276646.080000
   2179   2180     1   0.10969 276646.080000
   2179   2181     1   0.10969 276646.080000
   2182   2183     1   0.10969 276646.080000
   2182   2184     1   0.10969 276646.080000
   2185   2186     1   0.10969 276646.080000
   2185   2187     1   0.10969 276646.080000
   2190   2219     1   0.10304 312293.760000
   2191   2192     1   0.10910 283424.160000
   2191   2193     1   0.10910 283424.160000
   2194   2195     1   0.10910 283424.160000
   2194   2196     1   0.10910 283424.160000
   2197   2198     1   0.10910 283424.160000
   2197   2199     1   0.10910 283424.160000
   2200   2201     1   0.10969 276646.080000
   2200   2202     1   0.10969 276646.080000
   2203   2204     1   0.10969 276646.080000
   2203   2205     1   0.10969 276646.080000
   2206   2207     1   0.10969 276646.080000
   2206   2208     1   0.10969 276646.080000
   2209   2210     1   0.10969 276646.080000
   2209   2211     1   0.10969 276646.080000
   2212   2213     1   0.10969 276646.080000
   2212   2214     1   0.10969 276646.080000
   2215   2216     1   0.10969 276646.080000
   2215   2217     1   0.10969 276646.080000
   2220   2249     1   0.10304 312293.760000
   2221   2222     1   0.10910 283424.160000
   2221   2223     1   0.10910 283424.160000
   2224   2225     1   0.10910 283424.160000
   2224   2226     1   0.10910 283424.160000
   2227   2228     1   0.10910 283424.160000
   2227   2229     1   0.10910 283424.160000
   2230   2231     1   0.10969 276646.080000
   2230   2232     1   0.10969 276646.080000
   2233   2234     1   0.10969 276646.080000
   2233   2235     1   0.10969 276646.080000
   2236   2237     1   0.10969 276646.080000
   2236   2238     1   0.10969 276646.080000
   2239   2240     1   0.10969 276646.080000
   2239   2241     1   0.10969 276646.080000
   2242   2243     1   0.10969 276646.080000
   2242   2244     1   0.10969 276646.080000
   2245   2246     1   0.10969 276646.080000
   2245   2247     1   0.10969 276646.080000
   2250   2279     1   0.10304 312293.760000
   2251   2252     1   0.10910 283424.160000
   2251   2253     1   0.10910 283424.160000
   2254   2255     1   0.10910 283424.160000
   2254   2256     1   0.10910 283424.160000
   2257   2258     1   0.10910 283424.160000
   2257   2259     1   0.10910 283424.160000
   2260   2261     1   0.10969 276646.080000
   2260   2262     1   0.10969 276646.080000
   2263   2264     1   0.10969 276646.080000
   2263   2265     1   0.10969 276646.080000
   2266   2267     1   0.10969 276646.080000
   2266   2268     1   0.10969 276646.080000
   2269   2270     1   0.10969 276646.080000
   2269   2271     1   0.10969 276646.080000
   2272   2273     1   0.10969 276646.080000
   2272   2274     1   0.10969 276646.080000
   2275   2276     1   0.10969 276646.080000
   2275   2277     1   0.10969 276646.080000
   2280   2309     1   0.10304 312293.760000
   2281   2282     1   0.10910 283424.160000
   2281   2283     1   0.10910 283424.160000
   2284   2285     1   0.10910 283424.160000
   2284   2286     1   0.10910 283424.160000
   2287   2288     1   0.10910 283424.160000
   2287   2289     1   0.10910 283424.160000
   2290   2291     1   0.10969 276646.080000
   2290   2292     1   0.10969 276646.080000
   2293   2294     1   0.10969 276646.080000
   2293   2295     1   0.10969 276646.080000
   2296   2297     1   0.10969 276646.080000
   2296   2298     1   0.10969 276646.080000
   2299   2300     1   0.10969 276646.080000
   2299   2301     1   0.10969 276646.080000
   2302   2303     1   0.10969 276646.080000
   2302   2304     1   0.10969 276646.080000
   2305   2306     1   0.10969 276646.080000
   2305   2307     1   0.10969 276646.080000
   2310   2339     1   0.10304 312293.760000
   2311   2312     1   0.10910 283424.160000
   2311   2313     1   0.10910 283424.160000
   2314   2315     1   0.10910 283424.160000
   2314   2316     1   0.10910 283424.160000
   2317   2318     1   0.10910 283424.160000
   2317   2319     1   0.10910 283424.160000
   2320   2321     1   0.10969 276646.080000
   2320   2322     1   0.10969 276646.080000
   2323   2324     1   0.10969 276646.080000
   2323   2325     1   0.10969 276646.080000
   2326   2327     1   0.10969 276646.080000
   2326   2328     1   0.10969 276646.080000
   2329   2330     1   0.10969 276646.080000
   2329   2331     1   0.10969 276646.080000
   2332   2333     1   0.10969 276646.080000
   2332   2334     1   0.10969 276646.080000
   2335   2336     1   0.10969 276646.080000
   2335   2337     1   0.10969 276646.080000
   2340   2369     1   0.10304 312293.760000
   2341   2342     1   0.10910 283424.160000
   2341   2343     1   0.10910 283424.160000
   2344   2345     1   0.10910 283424.160000
   2344   2346     1   0.10910 283424.160000
   2347   2348     1   0.10910 283424.160000
   2347   2349     1   0.10910 283424.160000
   2350   2351     1   0.10969 276646.080000
   2350   2352     1   0.10969 276646.080000
   2353   2354     1   0.10969 276646.080000
   2353   2355     1   0.10969 276646.080000
   2356   2357     1   0.10969 276646.080000
   2356   2358     1   0.10969 276646.080000
   2359   2360     1   0.10969 276646.080000
   2359   2361     1   0.10969 276646.080000
   2362   2363     1   0.10969 276646.080000
   2362   2364     1   0.10969 276646.080000
   2365   2366     1   0.10969 276646.080000
   2365   2367     1   0.10969 276646.080000
   2370   2399     1   0.10304 312293.760000
   2371   2372     1   0.10910 283424.160000
   2371   2373     1   0.10910 283424.160000
   2374   2375     1   0.10910 283424.160000
   2374   2376     1   0.10910 283424.160000
   2377   2378     1   0.10910 283424.160000
   2377   2379     1   0.10910 283424.160000
   2380   2381     1   0.10969 276646.080000
   2380   2382     1   0.10969 276646.080000
   2383   2384     1   0.10969 276646.080000
   2383   2385     1   0.10969 276646.080000
   2386   2387     1   0.10969 276646.080000
   2386   2388     1   0.10969 276646.080000
   2389   2390     1   0.10969 276646.080000
   2389   2391     1   0.10969 276646.080000
   2392   2393     1   0.10969 276646.080000
   2392   2394     1   0.10969 276646.080000
   2395   2396     1   0.10969 276646.080000
   2395   2397     1   0.10969 276646.080000
   2400   2429     1   0.10304 312293.760000
   2401   2402     1   0.10910 283424.160000
   2401   2403     1   0.10910 283424.160000
   2404   2405     1   0.10910 283424.160000
   2404   2406     1   0.10910 283424.160000
   2407   2408     1   0.10910 283424.160000
   2407   2409     1   0.10910 283424.160000
   2410   2411     1   0.10969 276646.080000
   2410   2412     1   0.10969 276646.080000
   2413   2414     1   0.10969 276646.080000
   2413   2415     1   0.10969 276646.080000
   2416   2417     1   0.10969 276646.080000
   2416   2418     1   0.10969 276646.080000
   2419   2420     1   0.10969 276646.080000
   2419   2421     1   0.10969 276646.080000
   2422   2423     1   0.10969 276646.080000
   2422   2424     1   0.10969 276646.080000
   2425   2426     1   0.10969 276646.080000
   2425   2427     1   0.10969 276646.080000
   2430   2459     1   0.10304 312293.760000
   2431   2432     1   0.10910 283424.160000
   2431   2433     1   0.10910 283424.160000
   2434   2435     1   0.10910 283424.160000
   2434   2436     1   0.10910 283424.160000
   2437   2438     1   0.10910 283424.160000
   2437   2439     1   0.10910 283424.160000
   2440   2441     1   0.10969 276646.080000
   2440   2442     1   0.10969 276646.080000
   2443   2444     1   0.10969 276646.080000
   2443   2445     1   0.10969 276646.080000
   2446   2447     1   0.10969 276646.080000
   2446   2448     1   0.10969 276646.080000
   2449   2450     1   0.10969 276646.080000
   2449   2451     1   0.10969 276646.080000
   2452   2453     1   0.10969 276646.080000
   2452   2454     1   0.10969 276646.080000
   2455   2456     1   0.10969 276646.080000
   2455   2457     1   0.10969 276646.080000
   2460   2489     1   0.10304 312293.760000
   2461   2462     1   0.10910 283424.160000
   2461   2463     1   0.10910 283424.160000
   2464   2465     1   0.10910 283424.160000
   2464   2466     1   0.10910 283424.160000
   2467   2468     1   0.10910 283424.160000
   2467   2469     1   0.10910 283424.160000
   2470   2471     1   0.10969 276646.080000
   2470   2472     1   0.10969 276646.080000
   2473   2474     1   0.10969 276646.080000
   2473   2475     1   0.10969 276646.080000
   2476   2477     1   0.10969 276646.080000
   2476   2478     1   0.10969 276646.080000
   2479   2480     1   0.10969 276646.080000
   2479   2481     1   0.10969 276646.080000
   2482   2483     1   0.10969 276646.080000
   2482   2484     1   0.10969 276646.080000
   2485   2486     1   0.10969 276646.080000
   2485   2487     1   0.10969 276646.080000
   2490   2519     1   0.10304 312293.760000
   2491   2492     1   0.10910 283424.160000
   2491   2493     1   0.10910 283424.160000
   2494   2495     1   0.10910 283424.160000
   2494   2496     1   0.10910 283424.160000
   2497   2498     1   0.10910 283424.160000
   2497   2499     1   0.10910 283424.160000
   2500   2501     1   0.10969 276646.080000
   2500   2502     1   0.10969 276646.080000
   2503   2504     1   0.10969 276646.080000
   2503   2505     1   0.10969 276646.080000
   2506   2507     1   0.10969 276646.080000
   2506   2508     1   0.10969 276646.080000
   2509   2510     1   0.10969 276646.080000
   2509   2511     1   0.10969 276646.080000
   2512   2513     1   0.10969 276646.080000
   2512   2514     1   0.10969 276646.080000
   2515   2516     1   0.10969 276646.080000
   2515   2517     1   0.10969 276646.080000
   2520   2549     1   0.10304 312293.760000
   2521   2522     1   0.10910 283424.160000
   2521   2523     1   0.10910 283424.160000
   2524   2525     1   0.10910 283424.160000
   2524   2526     1   0.10910 283424.160000
   2527   2528     1   0.10910 283424.160000
   2527   2529     1   0.10910 283424.160000
   2530   2531     1   0.10969 276646.080000
   2530   2532     1   0.10969 276646.080000
   2533   2534     1   0.10969 276646.080000
   2533   2535     1   0.10969 276646.080000
   2536   2537     1   0.10969 276646.080000
   2536   2538     1   0.10969 276646.080000
   2539   2540     1   0.10969 276646.080000
   2539   2541     1   0.10969 276646.080000
   2542   2543     1   0.10969 276646.080000
   2542   2544     1   0.10969 276646.080000
   2545   2546     1   0.10969 276646.080000
   2545   2547     1   0.10969 276646.080000
   2550   2579     1   0.10304 312293.760000
   2551   2552     1   0.10910 283424.160000
   2551   2553     1   0.10910 283424.160000
   2554   2555     1   0.10910 283424.160000
   2554   2556     1   0.10910 283424.160000
   2557   2558     1   0.10910 283424.160000
   2557   2559     1   0.10910 283424.160000
   2560   2561     1   0.10969 276646.080000
   2560   2562     1   0.10969 276646.080000
   2563   2564     1   0.10969 276646.080000
   2563   2565     1   0.10969 276646.080000
   2566   2567     1   0.10969 276646.080000
   2566   2568     1   0.10969 276646.080000
   2569   2570     1   0.10969 276646.080000
   2569   2571     1   0.10969 276646.080000
   2572   2573     1   0.10969 276646.080000
   2572   2574     1   0.10969 276646.080000
   2575   2576     1   0.10969 276646.080000
   2575   2577     1   0.10969 276646.080000
   2580   2609     1   0.10304 312293.760000
   2581   2582     1   0.10910 283424.160000
   2581   2583     1   0.10910 283424.160000
   2584   2585     1   0.10910 283424.160000
   2584   2586     1   0.10910 283424.160000
   2587   2588     1   0.10910 283424.160000
   2587   2589     1   0.10910 283424.160000
   2590   2591     1   0.10969 276646.080000
   2590   2592     1   0.10969 276646.080000
   2593   2594     1   0.10969 276646.080000
   2593   2595     1   0.10969 276646.080000
   2596   2597     1   0.10969 276646.080000
   2596   2598     1   0.10969 276646.080000
   2599   2600     1   0.10969 276646.080000
   2599   2601     1   0.10969 276646.080000
   2602   2603     1   0.10969 276646.080000
   2602   2604     1   0.10969 276646.080000
   2605   2606     1   0.10969 276646.080000
   2605   2607     1   0.10969 276646.080000
   2610   2639     1   0.10304 312293.760000
   2611   2612     1   0.10910 283424.160000
   2611   2613     1   0.10910 283424.160000
   2614   2615     1   0.10910 283424.160000
   2614   2616     1   0.10910 283424.160000
   2617   2618     1   0.10910 283424.160000
   2617   2619     1   0.10910 283424.160000
   2620   2621     1   0.10969 276646.080000
   2620   2622     1   0.10969 276646.080000
   2623   2624     1   0.10969 276646.080000
   2623   2625     1   0.10969 276646.080000
   2626   2627     1   0.10969 276646.080000
   2626   2628     1   0.10969 276646.080000
   2629   2630     1   0.10969 276646.080000
   2629   2631     1   0.10969 276646.080000
   2632   2633     1   0.10969 276646.080000
   2632   2634     1   0.10969 276646.080000
   2635   2636     1   0.10969 276646.080000
   2635   2637     1   0.10969 276646.080000
   2640   2669     1   0.10304 312293.760000
   2641   2642     1   0.10910 283424.160000
   2641   2643     1   0.10910 283424.160000
   2644   2645     1   0.10910 283424.160000
   2644   2646     1   0.10910 283424.160000
   2647   2648     1   0.10910 283424.160000
   2647   2649     1   0.10910 283424.160000
   2650   2651     1   0.10969 276646.080000
   2650   2652     1   0.10969 276646.080000
   2653   2654     1   0.10969 276646.080000
   2653   2655     1   0.10969 276646.080000
   2656   2657     1   0.10969 276646.080000
   2656   2658     1   0.10969 276646.080000
   2659   2660     1   0.10969 276646.080000
   2659   2661     1   0.10969 276646.080000
   2662   2663     1   0.10969 276646.080000
   2662   2664     1   0.10969 276646.080000
   2665   2666     1   0.10969 276646.080000
   2665   2667     1   0.10969 276646.080000
   2670   2699     1   0.10304 312293.760000
   2671   2672     1   0.10910 283424.160000
   2671   2673     1   0.10910 283424.160000
   2674   2675     1   0.10910 283424.160000
   2674   2676     1   0.10910 283424.160000
   2677   2678     1   0.10910 283424.160000
   2677   2679     1   0.10910 283424.160000
   2680   2681     1   0.10969 276646.080000
   2680   2682     1   0.10969 276646.080000
   2683   2684     1   0.10969 276646.080000
   2683   2685     1   0.10969 276646.080000
   2686   2687     1   0.10969 276646.080000
   2686   2688     1   0.10969 276646.080000
   2689   2690     1   0.10969 276646.080000
   2689   2691     1   0.10969 276646.080000
   2692   2693     1   0.10969 276646.080000
   2692   2694     1   0.10969 276646.080000
   2695   2696     1   0.10969 276646.080000
   2695   2697     1   0.10969 276646.080000
   2700   2729     1   0.10304 312293.760000
   2701   2702     1   0.10910 283424.160000
   2701   2703     1   0.10910 283424.160000
   2704   2705     1   0.10910 283424.160000
   2704   2706     1   0.10910 283424.160000
   2707   2708     1   0.10910 283424.160000
   2707   2709     1   0.10910 283424.160000
   2710   2711     1   0.10969 276646.080000
   2710   2712     1   0.10969 276646.080000
   2713   2714     1   0.10969 276646.080000
   2713   2715     1   0.10969 276646.080000
   2716   2717     1   0.10969 276646.080000
   2716   2718     1   0.10969 276646.080000
   2719   2720     1   0.10969 276646.080000
   2719   2721     1   0.10969 276646.080000
   2722   2723     1   0.10969 276646.080000
   2722   2724     1   0.10969 276646.080000
   2725   2726     1   0.10969 276646.080000
   2725   2727     1   0.10969 276646.080000
   2730   2759     1   0.10304 312293.760000
   2731   2732     1   0.10910 283424.160000
   2731   2733     1   0.10910 283424.160000
   2734   2735     1   0.10910 283424.160000
   2734   2736     1   0.10910 283424.160000
   2737   2738     1   0.10910 283424.160000
   2737   2739     1   0.10910 283424.160000
   2740   2741     1   0.10969 276646.080000
   2740   2742     1   0.10969 276646.080000
   2743   2744     1   0.10969 276646.080000
   2743   2745     1   0.10969 276646.080000
   2746   2747     1   0.10969 276646.080000
   2746   2748     1   0.10969 276646.080000
   2749   2750     1   0.10969 276646.080000
   2749   2751     1   0.10969 276646.080000
   2752   2753     1   0.10969 276646.080000
   2752   2754     1   0.10969 276646.080000
   2755   2756     1   0.10969 276646.080000
   2755   2757     1   0.10969 276646.080000
   2760   2789     1   0.10304 312293.760000
   2761   2762     1   0.10910 283424.160000
   2761   2763     1   0.10910 283424.160000
   2764   2765     1   0.10910 283424.160000
   2764   2766     1   0.10910 283424.160000
   2767   2768     1   0.10910 283424.160000
   2767   2769     1   0.10910 283424.160000
   2770   2771     1   0.10969 276646.080000
   2770   2772     1   0.10969 276646.080000
   2773   2774     1   0.10969 276646.080000
   2773   2775     1   0.10969 276646.080000
   2776   2777     1   0.10969 276646.080000
   2776   2778     1   0.10969 276646.080000
   2779   2780     1   0.10969 276646.080000
   2779   2781     1   0.10969 276646.080000
   2782   2783     1   0.10969 276646.080000
   2782   2784     1   0.10969 276646.080000
   2785   2786     1   0.10969 276646.080000
   2785   2787     1   0.10969 276646.080000
   2790   2819     1   0.10304 312293.760000
   2791   2792     1   0.10910 283424.160000
   2791   2793     1   0.10910 283424.160000
   2794   2795     1   0.10910 283424.160000
   2794   2796     1   0.10910 283424.160000
   2797   2798     1   0.10910 283424.160000
   2797   2799     1   0.10910 283424.160000
   2800   2801     1   0.10969 276646.080000
   2800   2802     1   0.10969 276646.080000
   2803   2804     1   0.10969 276646.080000
   2803   2805     1   0.10969 276646.080000
   2806   2807     1   0.10969 276646.080000
   2806   2808     1   0.10969 276646.080000
   2809   2810     1   0.10969 276646.080000
   2809   2811     1   0.10969 276646.080000
   2812   2813     1   0.10969 276646.080000
   2812   2814     1   0.10969 276646.080000
   2815   2816     1   0.10969 276646.080000
   2815   2817     1   0.10969 276646.080000
   2820   2821     1   0.10910 283424.160000
   2820   2822     1   0.10910 283424.160000
   2823   2824     1   0.10969 276646.080000
   2823   2825     1   0.10969 276646.080000
   2826   2827     1   0.10969 276646.080000
   2826   2828     1   0.10969 276646.080000
   2829   2830     1   0.10304 312293.760000
   2829   2831     1   0.10304 312293.760000
   2829   2833     1   0.10304 312293.760000
   2834   2835     1   0.10910 283424.160000
   2834   2836     1   0.10910 283424.160000
   2837   2838     1   0.10969 276646.080000
   2837   2839     1   0.10969 276646.080000
   2840   2841     1   0.10969 276646.080000
   2840   2842     1   0.10969 276646.080000
   2843   2844     1   0.10304 312293.760000
   2843   2845     1   0.10304 312293.760000
   2843   2847     1   0.10304 312293.760000
   2848   2849     1   0.10910 283424.160000
   2848   2850     1   0.10910 283424.160000
   2851   2852     1   0.10969 276646.080000
   2851   2853     1   0.10969 276646.080000
   2854   2855     1   0.10969 276646.080000
   2854   2856     1   0.10969 276646.080000
   2857   2858     1   0.10304 312293.760000
   2857   2859     1   0.10304 312293.760000
   2857   2861     1   0.10304 312293.760000
   2862   2863     1   0.10910 283424.160000
   2862   2864     1   0.10910 283424.160000
   2865   2866     1   0.10969 276646.080000
   2865   2867     1   0.10969 276646.080000
   2868   2869     1   0.10969 276646.080000
   2868   2870     1   0.10969 276646.080000
   2871   2872     1   0.10304 312293.760000
   2871   2873     1   0.10304 312293.760000
   2871   2875     1   0.10304 312293.760000
   2876   2877     1   0.10910 283424.160000
   2876   2878     1   0.10910 283424.160000
   2879   2880     1   0.10969 276646.080000
   2879   2881     1   0.10969 276646.080000
   2882   2883     1   0.10969 276646.080000
   2882   2884     1   0.10969 276646.080000
   2885   2886     1   0.10304 312293.760000
   2885   2887     1   0.10304 312293.760000
   2885   2889     1   0.10304 312293.760000
   2890   2891     1   0.10910 283424.160000
   2890   2892     1   0.10910 283424.160000
   2893   2894     1   0.10969 276646.080000
   2893   2895     1   0.10969 276646.080000
   2896   2897     1   0.10969 276646.080000
   2896   2898     1   0.10969 276646.080000
   2899   2900     1   0.10304 312293.760000
   2899   2901     1   0.10304 312293.760000
   2899   2903     1   0.10304 312293.760000
   2904   2905     1   0.10910 283424.160000
   2904   2906     1   0.10910 283424.160000
   2907   2908     1   0.10969 276646.080000
   2907   2909     1   0.10969 276646.080000
   2910   2911     1   0.10969 276646.080000
   2910   2912     1   0.10969 276646.080000
   2913   2914     1   0.10304 312293.760000
   2913   2915     1   0.10304 312293.760000
   2913   2917     1   0.10304 312293.760000
   2918   2919     1   0.10910 283424.160000
   2918   2920     1   0.10910 283424.160000
   2921   2922     1   0.10969 276646.080000
   2921   2923     1   0.10969 276646.080000
   2924   2925     1   0.10969 276646.080000
   2924   2926     1   0.10969 276646.080000
   2927   2928     1   0.10304 312293.760000
   2927   2929     1   0.10304 312293.760000
   2927   2931     1   0.10304 312293.760000
   2932   2933     1   0.10910 283424.160000
   2932   2934     1   0.10910 283424.160000
   2935   2936     1   0.10969 276646.080000
   2935   2937     1   0.10969 276646.080000
   2938   2939     1   0.10969 276646.080000
   2938   2940     1   0.10969 276646.080000
   2941   2942     1   0.10304 312293.760000
   2941   2943     1   0.10304 312293.760000
   2941   2945     1   0.10304 312293.760000
   2946   2947     1   0.10910 283424.160000
   2946   2948     1   0.10910 283424.160000
   2949   2950     1   0.10969 276646.080000
   2949   2951     1   0.10969 276646.080000
   2952   2953     1   0.10969 276646.080000
   2952   2954     1   0.10969 276646.080000
   2955   2956     1   0.10304 312293.760000
   2955   2957     1   0.10304 312293.760000
   2955   2959     1   0.10304 312293.760000
   2960   2961     1   0.10910 283424.160000
   2960   2962     1   0.10910 283424.160000
   2963   2964     1   0.10969 276646.080000
   2963   2965     1   0.10969 276646.080000
   2966   2967     1   0.10969 276646.080000
   2966   2968     1   0.10969 276646.080000
   2969   2970     1   0.10304 312293.760000
   2969   2971     1   0.10304 312293.760000
   2969   2973     1   0.10304 312293.760000
   2974   2975     1   0.10910 283424.160000
   2974   2976     1   0.10910 283424.160000
   2977   2978     1   0.10969 276646.080000
   2977   2979     1   0.10969 276646.080000
   2980   2981     1   0.10969 276646.080000
   2980   2982     1   0.10969 276646.080000
   2983   2984     1   0.10304 312293.760000
   2983   2985     1   0.10304 312293.760000
   2983   2987     1   0.10304 312293.760000
   2988   2989     1   0.10910 283424.160000
   2988   2990     1   0.10910 283424.160000
   2991   2992     1   0.10969 276646.080000
   2991   2993     1   0.10969 276646.080000
   2994   2995     1   0.10969 276646.080000
   2994   2996     1   0.10969 276646.080000
   2997   2998     1   0.10304 312293.760000
   2997   2999     1   0.10304 312293.760000
   2997   3001     1   0.10304 312293.760000
   3002   3003     1   0.10910 283424.160000
   3002   3004     1   0.10910 283424.160000
   3005   3006     1   0.10969 276646.080000
   3005   3007     1   0.10969 276646.080000
   3008   3009     1   0.10969 276646.080000
   3008   3010     1   0.10969 276646.080000
   3011   3012     1   0.10304 312293.760000
   3011   3013     1   0.10304 312293.760000
   3011   3015     1   0.10304 312293.760000
   3016   3017     1   0.10910 283424.160000
   3016   3018     1   0.10910 283424.160000
   3019   3020     1   0.10969 276646.080000
   3019   3021     1   0.10969 276646.080000
   3022   3023     1   0.10969 276646.080000
   3022   3024     1   0.10969 276646.080000
   3025   3026     1   0.10304 312293.760000
   3025   3027     1   0.10304 312293.760000
   3025   3029     1   0.10304 312293.760000
   3030   3031     1   0.10910 283424.160000
   3030   3032     1   0.10910 283424.160000
   3033   3034     1   0.10969 276646.080000
   3033   3035     1   0.10969 276646.080000
   3036   3037     1   0.10969 276646.080000
   3036   3038     1   0.10969 276646.080000
   3039   3040     1   0.10304 312293.760000
   3039   3041     1   0.10304 312293.760000
   3039   3043     1   0.10304 312293.760000
   3044   3045     1   0.10910 283424.160000
   3044   3046     1   0.10910 283424.160000
   3047   3048     1   0.10969 276646.080000
   3047   3049     1   0.10969 276646.080000
   3050   3051     1   0.10969 276646.080000
   3050   3052     1   0.10969 276646.080000
   3053   3054     1   0.10304 312293.760000
   3053   3055     1   0.10304 312293.760000
   3053   3057     1   0.10304 312293.760000
   3058   3059     1   0.10910 283424.160000
   3058   3060     1   0.10910 283424.160000
   3061   3062     1   0.10969 276646.080000
   3061   3063     1   0.10969 276646.080000
   3064   3065     1   0.10969 276646.080000
   3064   3066     1   0.10969 276646.080000
   3067   3068     1   0.10304 312293.760000
   3067   3069     1   0.10304 312293.760000
   3067   3071     1   0.10304 312293.760000
   3072   3073     1   0.10910 283424.160000
   3072   3074     1   0.10910 283424.160000
   3075   3076     1   0.10969 276646.080000
   3075   3077     1   0.10969 276646.080000
   3078   3079     1   0.10969 276646.080000
   3078   3080     1   0.10969 276646.080000
   3081   3082     1   0.10304 312293.760000
   3081   3083     1   0.10304 312293.760000
   3081   3085     1   0.10304 312293.760000
   3086   3087     1   0.10910 283424.160000
   3086   3088     1   0.10910 283424.160000
   3089   3090     1   0.10969 276646.080000
   3089   3091     1   0.10969 276646.080000
   3092   3093     1   0.10969 276646.080000
   3092   3094     1   0.10969 276646.080000
   3095   3096     1   0.10304 312293.760000
   3095   3097     1   0.10304 312293.760000
   3095   3099     1   0.10304 312293.760000
   3100   3101     1   0.10910 283424.160000
   3100   3102     1   0.10910 283424.160000
   3103   3104     1   0.10969 276646.080000
   3103   3105     1   0.10969 276646.080000
   3106   3107     1   0.10969 276646.080000
   3106   3108     1   0.10969 276646.080000
   3109   3110     1   0.10304 312293.760000
   3109   3111     1   0.10304 312293.760000
   3109   3113     1   0.10304 312293.760000
   3114   3115     1   0.10910 283424.160000
   3114   3116     1   0.10910 283424.160000
   3117   3118     1   0.10969 276646.080000
   3117   3119     1   0.10969 276646.080000
   3120   3121     1   0.10969 276646.080000
   3120   3122     1   0.10969 276646.080000
   3123   3124     1   0.10304 312293.760000
   3123   3125     1   0.10304 312293.760000
   3123   3127     1   0.10304 312293.760000
   3128   3129     1   0.10910 283424.160000
   3128   3130     1   0.10910 283424.160000
   3131   3132     1   0.10969 276646.080000
   3131   3133     1   0.10969 276646.080000
   3134   3135     1   0.10969 276646.080000
   3134   3136     1   0.10969 276646.080000
   3137   3138     1   0.10304 312293.760000
   3137   3139     1   0.10304 312293.760000
   3137   3141     1   0.10304 312293.760000
   3142   3143     1   0.10910 283424.160000
   3142   3144     1   0.10910 283424.160000
   3145   3146     1   0.10969 276646.080000
   3145   3147     1   0.10969 276646.080000
   3148   3149     1   0.10969 276646.080000
   3148   3150     1   0.10969 276646.080000
   3151   3152     1   0.10304 312293.760000
   3151   3153     1   0.10304 312293.760000
   3151   3155     1   0.10304 312293.760000
   3156   3157     1   0.10910 283424.160000
   3156   3158     1   0.10910 283424.160000
   3159   3160     1   0.10969 276646.080000
   3159   3161     1   0.10969 276646.080000
   3162   3163     1   0.10969 276646.080000
   3162   3164     1   0.10969 276646.080000
   3165   3166     1   0.10304 312293.760000
   3165   3167     1   0.10304 312293.760000
   3165   3169     1   0.10304 312293.760000
   3170   3171     1   0.10910 283424.160000
   3170   3172     1   0.10910 283424.160000
   3173   3174     1   0.10969 276646.080000
   3173   3175     1   0.10969 276646.080000
   3176   3177     1   0.10969 276646.080000
   3176   3178     1   0.10969 276646.080000
   3179   3180     1   0.10304 312293.760000
   3179   3181     1   0.10304 312293.760000
   3179   3183     1   0.10304 312293.760000
   3184   3185     1   0.10910 283424.160000
   3184   3186     1   0.10910 283424.160000
   3187   3188     1   0.10969 276646.080000
   3187   3189     1   0.10969 276646.080000
   3190   3191     1   0.10969 276646.080000
   3190   3192     1   0.10969 276646.080000
   3193   3194     1   0.10304 312293.760000
   3193   3195     1   0.10304 312293.760000
   3193   3197     1   0.10304 312293.760000
   3198   3199     1   0.10910 283424.160000
   3198   3200     1   0.10910 283424.160000
   3201   3202     1   0.10969 276646.080000
   3201   3203     1   0.10969 276646.080000
   3204   3205     1   0.10969 276646.080000
   3204   3206     1   0.10969 276646.080000
   3207   3208     1   0.10304 312293.760000
   3207   3209     1   0.10304 312293.760000
   3207   3211     1   0.10304 312293.760000
   3212   3213     1   0.10910 283424.160000
   3212   3214     1   0.10910 283424.160000
   3215   3216     1   0.10969 276646.080000
   3215   3217     1   0.10969 276646.080000
   3218   3219     1   0.10969 276646.080000
   3218   3220     1   0.10969 276646.080000
   3221   3222     1   0.10304 312293.760000
   3221   3223     1   0.10304 312293.760000
   3221   3225     1   0.10304 312293.760000
   3226   3227     1   0.10910 283424.160000
   3226   3228     1   0.10910 283424.160000
   3229   3230     1   0.10969 276646.080000
   3229   3231     1   0.10969 276646.080000
   3232   3233     1   0.10969 276646.080000
   3232   3234     1   0.10969 276646.080000
   3235   3236     1   0.10304 312293.760000
   3235   3237     1   0.10304 312293.760000
   3235   3239     1   0.10304 312293.760000
   3240   3241     1   0.10910 283424.160000
   3240   3242     1   0.10910 283424.160000
   3243   3244     1   0.10969 276646.080000
   3243   3245     1   0.10969 276646.080000
   3246   3247     1   0.10969 276646.080000
   3246   3248     1   0.10969 276646.080000
   3249   3250     1   0.10304 312293.760000
   3249   3251     1   0.10304 312293.760000
   3249   3253     1   0.10304 312293.760000
   3254   3255     1   0.10910 283424.160000
   3254   3256     1   0.10910 283424.160000
   3257   3258     1   0.10969 276646.080000
   3257   3259     1   0.10969 276646.080000
   3260   3261     1   0.10969 276646.080000
   3260   3262     1   0.10969 276646.080000
   3263   3264     1   0.10304 312293.760000
   3263   3265     1   0.10304 312293.760000
   3263   3267     1   0.10304 312293.760000
   3268   3269     1   0.10910 283424.160000
   3268   3270     1   0.10910 283424.160000
   3271   3272     1   0.10969 276646.080000
   3271   3273     1   0.10969 276646.080000
   3274   3275     1   0.10969 276646.080000
   3274   3276     1   0.10969 276646.080000
   3277   3278     1   0.10304 312293.760000
   3277   3279     1   0.10304 312293.760000
   3277   3281     1   0.10304 312293.760000
   3282   3283     1   0.10910 283424.160000
   3282   3284     1   0.10910 283424.160000
   3285   3286     1   0.10969 276646.080000
   3285   3287     1   0.10969 276646.080000
   3288   3289     1   0.10969 276646.080000
   3288   3290     1   0.10969 276646.080000
   3291   3292     1   0.10304 312293.760000
   3291   3293     1   0.10304 312293.760000
   3291   3295     1   0.10304 312293.760000
   3296   3297     1   0.10910 283424.160000
   3296   3298     1   0.10910 283424.160000
   3299   3300     1   0.10969 276646.080000
   3299   3301     1   0.10969 276646.080000
   3302   3303     1   0.10969 276646.080000
   3302   3304     1   0.10969 276646.080000
   3305   3306     1   0.10304 312293.760000
   3305   3307     1   0.10304 312293.760000
   3305   3309     1   0.10304 312293.760000
   3310   3311     1   0.10910 283424.160000
   3310   3312     1   0.10910 283424.160000
   3313   3314     1   0.10969 276646.080000
   3313   3315     1   0.10969 276646.080000
   3316   3317     1   0.10969 276646.080000
   3316   3318     1   0.10969 276646.080000
   3319   3320     1   0.10304 312293.760000
   3319   3321     1   0.10304 312293.760000
   3319   3323     1   0.10304 312293.760000
   3324   3325     1   0.10910 283424.160000
   3324   3326     1   0.10910 283424.160000
   3327   3328     1   0.10969 276646.080000
   3327   3329     1   0.10969 276646.080000
   3330   3331     1   0.10969 276646.080000
   3330   3332     1   0.10969 276646.080000
   3333   3334     1   0.10304 312293.760000
   3333   3335     1   0.10304 312293.760000
   3333   3337     1   0.10304 312293.760000
   3338   3339     1   0.10910 283424.160000
   3338   3340     1   0.10910 283424.160000
   3341   3342     1   0.10969 276646.080000
   3341   3343     1   0.10969 276646.080000
   3344   3345     1   0.10969 276646.080000
   3344   3346     1   0.10969 276646.080000
   3347   3348     1   0.10304 312293.760000
   3347   3349     1   0.10304 312293.760000
   3347   3351     1   0.10304 312293.760000
   3352   3353     1   0.10910 283424.160000
   3352   3354     1   0.10910 283424.160000
   3355   3356     1   0.10969 276646.080000
   3355   3357     1   0.10969 276646.080000
   3358   3359     1   0.10969 276646.080000
   3358   3360     1   0.10969 276646.080000
   3361   3362     1   0.10304 312293.760000
   3361   3363     1   0.10304 312293.760000
   3361   3365     1   0.10304 312293.760000
   3366   3367     1   0.10910 283424.160000
   3366   3368     1   0.10910 283424.160000
   3369   3370     1   0.10969 276646.080000
   3369   3371     1   0.10969 276646.080000
   3372   3373     1   0.10969 276646.080000
   3372   3374     1   0.10969 276646.080000
   3375   3376     1   0.10304 312293.760000
   3375   3377     1   0.10304 312293.760000
   3375   3379     1   0.10304 312293.760000
   3380   3381     1   0.10910 283424.160000
   3380   3382     1   0.10910 283424.160000
   3383   3384     1   0.10969 276646.080000
   3383   3385     1   0.10969 276646.080000
   3386   3387     1   0.10969 276646.080000
   3386   3388     1   0.10969 276646.080000
   3389   3390     1   0.10304 312293.760000
   3389   3391     1   0.10304 312293.760000
   3389   3393     1   0.10304 312293.760000
   3394   3395     1   0.10910 283424.160000
   3394   3396     1   0.10910 283424.160000
   3397   3398     1   0.10969 276646.080000
   3397   3399     1   0.10969 276646.080000
   3400   3401     1   0.10969 276646.080000
   3400   3402     1   0.10969 276646.080000
   3403   3404     1   0.10304 312293.760000
   3403   3405     1   0.10304 312293.760000
   3403   3407     1   0.10304 312293.760000
   3408   3409     1   0.10910 283424.160000
   3408   3410     1   0.10910 283424.160000
   3411   3412     1   0.10969 276646.080000
   3411   3413     1   0.10969 276646.080000
   3414   3415     1   0.10969 276646.080000
   3414   3416     1   0.10969 276646.080000
   3417   3418     1   0.10304 312293.760000
   3417   3419     1   0.10304 312293.760000
   3417   3421     1   0.10304 312293.760000
   3422   3423     1   0.10910 283424.160000
   3422   3424     1   0.10910 283424.160000
   3425   3426     1   0.10969 276646.080000
   3425   3427     1   0.10969 276646.080000
   3428   3429     1   0.10969 276646.080000
   3428   3430     1   0.10969 276646.080000
   3431   3432     1   0.10304 312293.760000
   3431   3433     1   0.10304 312293.760000
   3431   3435     1   0.10304 312293.760000
   3436   3437     1   0.10910 283424.160000
   3436   3438     1   0.10910 283424.160000
   3439   3440     1   0.10969 276646.080000
   3439   3441     1   0.10969 276646.080000
   3442   3443     1   0.10969 276646.080000
   3442   3444     1   0.10969 276646.080000
   3445   3446     1   0.10304 312293.760000
   3445   3447     1   0.10304 312293.760000
   3445   3449     1   0.10304 312293.760000
   3450   3451     1   0.10910 283424.160000
   3450   3452     1   0.10910 283424.160000
   3453   3454     1   0.10969 276646.080000
   3453   3455     1   0.10969 276646.080000
   3456   3457     1   0.10969 276646.080000
   3456   3458     1   0.10969 276646.080000
   3459   3460     1   0.10304 312293.760000
   3459   3461     1   0.10304 312293.760000
   3459   3463     1   0.10304 312293.760000
   3464   3465     1   0.10910 283424.160000
   3464   3466     1   0.10910 283424.160000
   3467   3468     1   0.10969 276646.080000
   3467   3469     1   0.10969 276646.080000
   3470   3471     1   0.10969 276646.080000
   3470   3472     1   0.10969 276646.080000
   3473   3474     1   0.10304 312293.760000
   3473   3475     1   0.10304 312293.760000
   3473   3477     1   0.10304 312293.760000
   3478   3479     1   0.10910 283424.160000
   3478   3480     1   0.10910 283424.160000
   3481   3482     1   0.10969 276646.080000
   3481   3483     1   0.10969 276646.080000
   3484   3485     1   0.10969 276646.080000
   3484   3486     1   0.10969 276646.080000
   3487   3488     1   0.10304 312293.760000
   3487   3489     1   0.10304 312293.760000
   3487   3491     1   0.10304 312293.760000
   3492   3493     1   0.10910 283424.160000
   3492   3494     1   0.10910 283424.160000
   3495   3496     1   0.10969 276646.080000
   3495   3497     1   0.10969 276646.080000
   3498   3499     1   0.10969 276646.080000
   3498   3500     1   0.10969 276646.080000
   3501   3502     1   0.10304 312293.760000
   3501   3503     1   0.10304 312293.760000
   3501   3505     1   0.10304 312293.760000
   3506   3507     1   0.10910 283424.160000
   3506   3508     1   0.10910 283424.160000
   3509   3510     1   0.10969 276646.080000
   3509   3511     1   0.10969 276646.080000
   3512   3513     1   0.10969 276646.080000
   3512   3514     1   0.10969 276646.080000
   3515   3516     1   0.10304 312293.760000
   3515   3517     1   0.10304 312293.760000
   3515   3519     1   0.10304 312293.760000
   3520   3521     1   0.10910 283424.160000
   3520   3522     1   0.10910 283424.160000
   3523   3524     1   0.10969 276646.080000
   3523   3525     1   0.10969 276646.080000
   3526   3527     1   0.10969 276646.080000
   3526   3528     1   0.10969 276646.080000
   3529   3530     1   0.10304 312293.760000
   3529   3531     1   0.10304 312293.760000
   3529   3533     1   0.10304 312293.760000
   3534   3535     1   0.10910 283424.160000
   3534   3536     1   0.10910 283424.160000
   3537   3538     1   0.10969 276646.080000
   3537   3539     1   0.10969 276646.080000
   3540   3541     1   0.10969 276646.080000
   3540   3542     1   0.10969 276646.080000
   3543   3544     1   0.10304 312293.760000
   3543   3545     1   0.10304 312293.760000
   3543   3547     1   0.10304 312293.760000
   3548   3549     1   0.10910 283424.160000
   3548   3550     1   0.10910 283424.160000
   3551   3552     1   0.10969 276646.080000
   3551   3553     1   0.10969 276646.080000
   3554   3555     1   0.10969 276646.080000
   3554   3556     1   0.10969 276646.080000
   3557   3558     1   0.10304 312293.760000
   3557   3559     1   0.10304 312293.760000
   3557   3561     1   0.10304 312293.760000
   3562   3563     1   0.10910 283424.160000
   3562   3564     1   0.10910 283424.160000
   3565   3566     1   0.10969 276646.080000
   3565   3567     1   0.10969 276646.080000
   3568   3569     1   0.10969 276646.080000
   3568   3570     1   0.10969 276646.080000
   3571   3572     1   0.10304 312293.760000
   3571   3573     1   0.10304 312293.760000
   3571   3575     1   0.10304 312293.760000
   3576   3577     1   0.10910 283424.160000
   3576   3578     1   0.10910 283424.160000
   3579   3580     1   0.10969 276646.080000
   3579   3581     1   0.10969 276646.080000
   3582   3583     1   0.10969 276646.080000
   3582   3584     1   0.10969 276646.080000
   3585   3586     1   0.10304 312293.760000
   3585   3587     1   0.10304 312293.760000
   3585   3589     1   0.10304 312293.760000
   3590   3591     1   0.10910 283424.160000
   3590   3592     1   0.10910 283424.160000
   3593   3594     1   0.10969 276646.080000
   3593   3595     1   0.10969 276646.080000
   3596   3597     1   0.10969 276646.080000
   3596   3598     1   0.10969 276646.080000
   3599   3600     1   0.10304 312293.760000
   3599   3601     1   0.10304 312293.760000
   3599   3603     1   0.10304 312293.760000
   3604   3605     1   0.10910 283424.160000
   3604   3606     1   0.10910 283424.160000
   3607   3608     1   0.10969 276646.080000
   3607   3609     1   0.10969 276646.080000
   3610   3611     1   0.10969 276646.080000
   3610   3612     1   0.10969 276646.080000
   3613   3614     1   0.10304 312293.760000
   3613   3615     1   0.10304 312293.760000
   3613   3617     1   0.10304 312293.760000
   3618   3619     1   0.10910 283424.160000
   3618   3620     1   0.10910 283424.160000
   3621   3622     1   0.10969 276646.080000
   3621   3623     1   0.10969 276646.080000
   3624   3625     1   0.10969 276646.080000
   3624   3626     1   0.10969 276646.080000
   3627   3628     1   0.10304 312293.760000
   3627   3629     1   0.10304 312293.760000
   3627   3631     1   0.10304 312293.760000
   3632   3633     1   0.10910 283424.160000
   3632   3634     1   0.10910 283424.160000
   3635   3636     1   0.10969 276646.080000
   3635   3637     1   0.10969 276646.080000
   3638   3639     1   0.10969 276646.080000
   3638   3640     1   0.10969 276646.080000
   3641   3642     1   0.10304 312293.760000
   3641   3643     1   0.10304 312293.760000
   3641   3645     1   0.10304 312293.760000
   3646   3647     1   0.10910 283424.160000
   3646   3648     1   0.10910 283424.160000
   3649   3650     1   0.10969 276646.080000
   3649   3651     1   0.10969 276646.080000
   3652   3653     1   0.10969 276646.080000
   3652   3654     1   0.10969 276646.080000
   3655   3656     1   0.10304 312293.760000
   3655   3657     1   0.10304 312293.760000
   3655   3659     1   0.10304 312293.760000
   3660   3661     1   0.10910 283424.160000
   3660   3662     1   0.10910 283424.160000
   3663   3664     1   0.10969 276646.080000
   3663   3665     1   0.10969 276646.080000
   3666   3667     1   0.10969 276646.080000
   3666   3668     1   0.10969 276646.080000
   3669   3670     1   0.10304 312293.760000
   3669   3671     1   0.10304 312293.760000
   3669   3673     1   0.10304 312293.760000
   3674   3675     1   0.10910 283424.160000
   3674   3676     1   0.10910 283424.160000
   3677   3678     1   0.10969 276646.080000
   3677   3679     1   0.10969 276646.080000
   3680   3681     1   0.10969 276646.080000
   3680   3682     1   0.10969 276646.080000
   3683   3684     1   0.10304 312293.760000
   3683   3685     1   0.10304 312293.760000
   3683   3687     1   0.10304 312293.760000
   3688   3689     1   0.10910 283424.160000
   3688   3690     1   0.10910 283424.160000
   3691   3692     1   0.10969 276646.080000
   3691   3693     1   0.10969 276646.080000
   3694   3695     1   0.10969 276646.080000
   3694   3696     1   0.10969 276646.080000
   3697   3698     1   0.10304 312293.760000
   3697   3699     1   0.10304 312293.760000
   3697   3701     1   0.10304 312293.760000
   3702   3703     1   0.10910 283424.160000
   3702   3704     1   0.10910 283424.160000
   3705   3706     1   0.10969 276646.080000
   3705   3707     1   0.10969 276646.080000
   3708   3709     1   0.10969 276646.080000
   3708   3710     1   0.10969 276646.080000
   3711   3712     1   0.10304 312293.760000
   3711   3713     1   0.10304 312293.760000
   3711   3715     1   0.10304 312293.760000
   3716   3717     1   0.10910 283424.160000
   3716   3718     1   0.10910 283424.160000
   3719   3720     1   0.10969 276646.080000
   3719   3721     1   0.10969 276646.080000
   3722   3723     1   0.10969 276646.080000
   3722   3724     1   0.10969 276646.080000
   3725   3726     1   0.10304 312293.760000
   3725   3727     1   0.10304 312293.760000
   3725   3729     1   0.10304 312293.760000
   3730   3731     1   0.10910 283424.160000
   3730   3732     1   0.10910 283424.160000
   3733   3734     1   0.10969 276646.080000
   3733   3735     1   0.10969 276646.080000
   3736   3737     1   0.10969 276646.080000
   3736   3738     1   0.10969 276646.080000
   3739   3740     1   0.10304 312293.760000
   3739   3741     1   0.10304 312293.760000
   3739   3743     1   0.10304 312293.760000
   3744   3745     1   0.10910 283424.160000
   3744   3746     1   0.10910 283424.160000
   3747   3748     1   0.10969 276646.080000
   3747   3749     1   0.10969 276646.080000
   3750   3751     1   0.10969 276646.080000
   3750   3752     1   0.10969 276646.080000
   3753   3754     1   0.10304 312293.760000
   3753   3755     1   0.10304 312293.760000
   3753   3757     1   0.10304 312293.760000
   3758   3759     1   0.10910 283424.160000
   3758   3760     1   0.10910 283424.160000
   3761   3762     1   0.10969 276646.080000
   3761   3763     1   0.10969 276646.080000
   3764   3765     1   0.10969 276646.080000
   3764   3766     1   0.10969 276646.080000
   3767   3768     1   0.10304 312293.760000
   3767   3769     1   0.10304 312293.760000
   3767   3771     1   0.10304 312293.760000
   3772   3773     1   0.10910 283424.160000
   3772   3774     1   0.10910 283424.160000
   3775   3776     1   0.10969 276646.080000
   3775   3777     1   0.10969 276646.080000
   3778   3779     1   0.10969 276646.080000
   3778   3780     1   0.10969 276646.080000
   3781   3782     1   0.10304 312293.760000
   3781   3783     1   0.10304 312293.760000
   3781   3785     1   0.10304 312293.760000
   3786   3787     1   0.10910 283424.160000
   3786   3788     1   0.10910 283424.160000
   3789   3790     1   0.10969 276646.080000
   3789   3791     1   0.10969 276646.080000
   3792   3793     1   0.10969 276646.080000
   3792   3794     1   0.10969 276646.080000
   3795   3796     1   0.10304 312293.760000
   3795   3797     1   0.10304 312293.760000
   3795   3799     1   0.10304 312293.760000
   3800   3801     1   0.10910 283424.160000
   3800   3802     1   0.10910 283424.160000
   3803   3804     1   0.10969 276646.080000
   3803   3805     1   0.10969 276646.080000
   3806   3807     1   0.10969 276646.080000
   3806   3808     1   0.10969 276646.080000
   3809   3810     1   0.10304 312293.760000
   3809   3811     1   0.10304 312293.760000
   3809   3813     1   0.10304 312293.760000
   3814   3815     1   0.10910 283424.160000
   3814   3816     1   0.10910 283424.160000
   3817   3818     1   0.10969 276646.080000
   3817   3819     1   0.10969 276646.080000
   3820   3821     1   0.10969 276646.080000
   3820   3822     1   0.10969 276646.080000
   3823   3824     1   0.10304 312293.760000
   3823   3825     1   0.10304 312293.760000
   3823   3827     1   0.10304 312293.760000
   3828   3829     1   0.10910 283424.160000
   3828   3830     1   0.10910 283424.160000
   3831   3832     1   0.10969 276646.080000
   3831   3833     1   0.10969 276646.080000
   3834   3835     1   0.10969 276646.080000
   3834   3836     1   0.10969 276646.080000
   3837   3838     1   0.10304 312293.760000
   3837   3839     1   0.10304 312293.760000
   3837   3841     1   0.10304 312293.760000
   3842   3843     1   0.10910 283424.160000
   3842   3844     1   0.10910 283424.160000
   3845   3846     1   0.10969 276646.080000
   3845   3847     1   0.10969 276646.080000
   3848   3849     1   0.10969 276646.080000
   3848   3850     1   0.10969 276646.080000
   3851   3852     1   0.10304 312293.760000
   3851   3853     1   0.10304 312293.760000
   3851   3855     1   0.10304 312293.760000
   3856   3857     1   0.10910 283424.160000
   3856   3858     1   0.10910 283424.160000
   3859   3860     1   0.10969 276646.080000
   3859   3861     1   0.10969 276646.080000
   3862   3863     1   0.10969 276646.080000
   3862   3864     1   0.10969 276646.080000
   3865   3866     1   0.10304 312293.760000
   3865   3867     1   0.10304 312293.760000
   3865   3869     1   0.10304 312293.760000
   3870   3871     1   0.10910 283424.160000
   3870   3872     1   0.10910 283424.160000
   3873   3874     1   0.10969 276646.080000
   3873   3875     1   0.10969 276646.080000
   3876   3877     1   0.10969 276646.080000
   3876   3878     1   0.10969 276646.080000
   3879   3880     1   0.10304 312293.760000
   3879   3881     1   0.10304 312293.760000
   3879   3883     1   0.10304 312293.760000
   3884   3885     1   0.10910 283424.160000
   3884   3886     1   0.10910 283424.160000
   3887   3888     1   0.10969 276646.080000
   3887   3889     1   0.10969 276646.080000
   3890   3891     1   0.10969 276646.080000
   3890   3892     1   0.10969 276646.080000
   3893   3894     1   0.10304 312293.760000
   3893   3895     1   0.10304 312293.760000
   3893   3897     1   0.10304 312293.760000
   3898   3899     1   0.10910 283424.160000
   3898   3900     1   0.10910 283424.160000
   3901   3902     1   0.10969 276646.080000
   3901   3903     1   0.10969 276646.080000
   3904   3905     1   0.10969 276646.080000
   3904   3906     1   0.10969 276646.080000
   3907   3908     1   0.10304 312293.760000
   3907   3909     1   0.10304 312293.760000
   3907   3911     1   0.10304 312293.760000
   3912   3913     1   0.10910 283424.160000
   3912   3914     1   0.10910 283424.160000
   3915   3916     1   0.10969 276646.080000
   3915   3917     1   0.10969 276646.080000
   3918   3919     1   0.10969 276646.080000
   3918   3920     1   0.10969 276646.080000
   3921   3922     1   0.10304 312293.760000
   3921   3923     1   0.10304 312293.760000
   3921   3925     1   0.10304 312293.760000
   3926   3927     1   0.10910 283424.160000
   3926   3928     1   0.10910 283424.160000
   3929   3930     1   0.10969 276646.080000
   3929   3931     1   0.10969 276646.080000
   3932   3933     1   0.10969 276646.080000
   3932   3934     1   0.10969 276646.080000
   3935   3936     1   0.10304 312293.760000
   3935   3937     1   0.10304 312293.760000
   3935   3939     1   0.10304 312293.760000
   3940   3941     1   0.10910 283424.160000
   3940   3942     1   0.10910 283424.160000
   3943   3944     1   0.10969 276646.080000
   3943   3945     1   0.10969 276646.080000
   3946   3947     1   0.10969 276646.080000
   3946   3948     1   0.10969 276646.080000
   3949   3950     1   0.10304 312293.760000
   3949   3951     1   0.10304 312293.760000
   3949   3953     1   0.10304 312293.760000
   3954   3955     1   0.10910 283424.160000
   3954   3956     1   0.10910 283424.160000
   3957   3958     1   0.10969 276646.080000
   3957   3959     1   0.10969 276646.080000
   3960   3961     1   0.10969 276646.080000
   3960   3962     1   0.10969 276646.080000
   3963   3964     1   0.10304 312293.760000
   3963   3965     1   0.10304 312293.760000
   3963   3967     1   0.10304 312293.760000
   3968   3969     1   0.10910 283424.160000
   3968   3970     1   0.10910 283424.160000
   3971   3972     1   0.10969 276646.080000
   3971   3973     1   0.10969 276646.080000
   3974   3975     1   0.10969 276646.080000
   3974   3976     1   0.10969 276646.080000
   3977   3978     1   0.10304 312293.760000
   3977   3979     1   0.10304 312293.760000
   3977   3981     1   0.10304 312293.760000
   3982   3983     1   0.10910 283424.160000
   3982   3984     1   0.10910 283424.160000
   3985   3986     1   0.10969 276646.080000
   3985   3987     1   0.10969 276646.080000
   3988   3989     1   0.10969 276646.080000
   3988   3990     1   0.10969 276646.080000
   3991   3992     1   0.10304 312293.760000
   3991   3993     1   0.10304 312293.760000
   3991   3995     1   0.10304 312293.760000
   3996   3997     1   0.10910 283424.160000
   3996   3998     1   0.10910 283424.160000
   3999   4000     1   0.10969 276646.080000
   3999   4001     1   0.10969 276646.080000
   4002   4003     1   0.10969 276646.080000
   4002   4004     1   0.10969 276646.080000
   4005   4006     1   0.10304 312293.760000
   4005   4007     1   0.10304 312293.760000
   4005   4009     1   0.10304 312293.760000
   4010   4011     1   0.10910 283424.160000
   4010   4012     1   0.10910 283424.160000
   4013   4014     1   0.10969 276646.080000
   4013   4015     1   0.10969 276646.080000
   4016   4017     1   0.10969 276646.080000
   4016   4018     1   0.10969 276646.080000
   4019   4020     1   0.10304 312293.760000
   4019   4021     1   0.10304 312293.760000
   4019   4023     1   0.10304 312293.760000
   4024   4025     1   0.10910 283424.160000
   4024   4026     1   0.10910 283424.160000
   4027   4028     1   0.10969 276646.080000
   4027   4029     1   0.10969 276646.080000
   4030   4031     1   0.10969 276646.080000
   4030   4032     1   0.10969 276646.080000
   4033   4034     1   0.10304 312293.760000
   4033   4035     1   0.10304 312293.760000
   4033   4037     1   0.10304 312293.760000
   4038   4039     1   0.10910 283424.160000
   4038   4040     1   0.10910 283424.160000
   4041   4042     1   0.10969 276646.080000
   4041   4043     1   0.10969 276646.080000
   4044   4045     1   0.10969 276646.080000
   4044   4046     1   0.10969 276646.080000
   4047   4048     1   0.10304 312293.760000
   4047   4049     1   0.10304 312293.760000
   4047   4051     1   0.10304 312293.760000
   4052   4053     1   0.10910 283424.160000
   4052   4054     1   0.10910 283424.160000
   4055   4056     1   0.10969 276646.080000
   4055   4057     1   0.10969 276646.080000
   4058   4059     1   0.10969 276646.080000
   4058   4060     1   0.10969 276646.080000
   4061   4062     1   0.10304 312293.760000
   4061   4063     1   0.10304 312293.760000
   4061   4065     1   0.10304 312293.760000
   4066   4067     1   0.10910 283424.160000
   4066   4068     1   0.10910 283424.160000
   4069   4070     1   0.10969 276646.080000
   4069   4071     1   0.10969 276646.080000
   4072   4073     1   0.10969 276646.080000
   4072   4074     1   0.10969 276646.080000
   4075   4076     1   0.10304 312293.760000
   4075   4077     1   0.10304 312293.760000
   4075   4079     1   0.10304 312293.760000
   4080   4081     1   0.10910 283424.160000
   4080   4082     1   0.10910 283424.160000
   4083   4084     1   0.10969 276646.080000
   4083   4085     1   0.10969 276646.080000
   4086   4087     1   0.10969 276646.080000
   4086   4088     1   0.10969 276646.080000
   4089   4090     1   0.10304 312293.760000
   4089   4091     1   0.10304 312293.760000
   4089   4093     1   0.10304 312293.760000
   4094   4095     1   0.10910 283424.160000
   4094   4096     1   0.10910 283424.160000
   4097   4098     1   0.10969 276646.080000
   4097   4099     1   0.10969 276646.080000
   4100   4101     1   0.10969 276646.080000
   4100   4102     1   0.10969 276646.080000
   4103   4104     1   0.10304 312293.760000
   4103   4105     1   0.10304 312293.760000
   4103   4107     1   0.10304 312293.760000
   4108   4109     1   0.10910 283424.160000
   4108   4110     1   0.10910 283424.160000
   4111   4112     1   0.10969 276646.080000
   4111   4113     1   0.10969 276646.080000
   4114   4115     1   0.10969 276646.080000
   4114   4116     1   0.10969 276646.080000
   4117   4118     1   0.10304 312293.760000
   4117   4119     1   0.10304 312293.760000
   4117   4121     1   0.10304 312293.760000
   4122   4123     1   0.10910 283424.160000
   4122   4124     1   0.10910 283424.160000
   4125   4126     1   0.10969 276646.080000
   4125   4127     1   0.10969 276646.080000
   4128   4129     1   0.10969 276646.080000
   4128   4130     1   0.10969 276646.080000
   4131   4132     1   0.10304 312293.760000
   4131   4133     1   0.10304 312293.760000
   4131   4135     1   0.10304 312293.760000
   4136   4137     1   0.10910 283424.160000
   4136   4138     1   0.10910 283424.160000
   4139   4140     1   0.10969 276646.080000
   4139   4141     1   0.10969 276646.080000
   4142   4143     1   0.10969 276646.080000
   4142   4144     1   0.10969 276646.080000
   4145   4146     1   0.10304 312293.760000
   4145   4147     1   0.10304 312293.760000
   4145   4149     1   0.10304 312293.760000
   4150   4151     1   0.10910 283424.160000
   4150   4152     1   0.10910 283424.160000
   4153   4154     1   0.10969 276646.080000
   4153   4155     1   0.10969 276646.080000
   4156   4157     1   0.10969 276646.080000
   4156   4158     1   0.10969 276646.080000
   4159   4160     1   0.10304 312293.760000
   4159   4161     1   0.10304 312293.760000
   4159   4163     1   0.10304 312293.760000

[ pairs ]
;    ai     aj funct         c0         c1         c2         c3
      1     26     1
      1     20     1
      1     23     1
      2     17     1
      2     11     1
      2    118     1
      5     14     1
      5     11     1
      5     58     1
      8     14     1
      8     17     1
      8     88     1
     11     79     1
     14    109     1
     17     49     1
     20     40     1
     23     70     1
     26    100     1
     30     55     1
     30     52     1
     30     49     1
     31     46     1
     31     40     1
     31    178     1
     34     43     1
     34     40     1
     34    148     1
     37     43     1
     37     46     1
     37     58     1
     43    169     1
     46    139     1
     52    130     1
     55    160     1
     60     85     1
     60     82     1
     60     79     1
     61     76     1
     61     70     1
     61    238     1
     64     73     1
     64     70     1
     64    208     1
     67     73     1
     67     76     1
     67     88     1
     73    229     1
     76    199     1
     82    190     1
     85    220     1
     90    115     1
     90    112     1
     90    109     1
     91    106     1
     91    100     1
     91    298     1
     94    103     1
     94    100     1
     94    268     1
     97    103     1
     97    106     1
     97    118     1
    103    289     1
    106    259     1
    112    250     1
    115    280     1
    120    145     1
    120    142     1
    120    139     1
    121    136     1
    121    130     1
    121    358     1
    124    133     1
    124    130     1
    124    328     1
    127    133     1
    127    136     1
    127    148     1
    133    349     1
    136    319     1
    142    310     1
    145    340     1
    150    175     1
    150    172     1
    150    169     1
    151    166     1
    151    160     1
    151    418     1
    154    163     1
    154    160     1
    154    388     1
    157    163     1
    157    166     1
    157    178     1
    163    409     1
    166    379     1
    172    370     1
    175    400     1
    180    205     1
    180    202     1
    180    199     1
    181    196     1
    181    190     1
    181    478     1
    184    193     1
    184    190     1
    184    448     1
    187    193     1
    187    196     1
    187    208     1
    193    469     1
    196    439     1
    202    430     1
    205    460     1
    210    235     1
    210    232     1
    210    229     1
    211    226     1
    211    220     1
    211    538     1
    214    223     1
    214    220     1
    214    508     1
    217    223     1
    217    226     1
    217    238     1
    223    529     1
    226    499     1
    232    490     1
    235    520     1
    240    265     1
    240    262     1
    240    259     1
    241    256     1
    241    250     1
    241    598     1
    244    253     1
    244    250     1
    244    568     1
    247    253     1
    247    256     1
    247    268     1
    253    589     1
    256    559     1
    262    550     1
    265    580     1
    270    295     1
    270    292     1
    270    289     1
    271    286     1
    271    280     1
    271    658     1
    274    283     1
    274    280     1
    274    628     1
    277    283     1
    277    286     1
    277    298     1
    283    649     1
    286    619     1
    292    610     1
    295    640     1
    300    325     1
    300    322     1
    300    319     1
    301    316     1
    301    310     1
    301    718     1
    304    313     1
    304    310     1
    304    688     1
    307    313     1
    307    316     1
    307    328     1
    313    709     1
    316    679     1
    322    670     1
    325    700     1
    330    355     1
    330    352     1
    330    349     1
    331    346     1
    331    340     1
    331    778     1
    334    343     1
    334    340     1
    334    748     1
    337    343     1
    337    346     1
    337    358     1
    343    769     1
    346    739     1
    352    730     1
    355    760     1
    360    385     1
    360    382     1
    360    379     1
    361    376     1
    361    370     1
    361    838     1
    364    373     1
    364    370     1
    364    808     1
    367    373     1
    367    376     1
    367    388     1
    373    829     1
    376    799     1
    382    790     1
    385    820     1
    390    415     1
    390    412     1
    390    409     1
    391    406     1
    391    400     1
    391    898     1
    394    403     1
    394    400     1
    394    868     1
    397    403     1
    397    406     1
    397    418     1
    403    889     1
    406    859     1
    412    850     1
    415    880     1
    420    445     1
    420    442     1
    420    439     1
    421    436     1
    421    430     1
    421    958     1
    424    433     1
    424    430     1
    424    928     1
    427    433     1
    427    436     1
    427    448     1
    433    949     1
    436    919     1
    442    910     1
    445    940     1
    450    475     1
    450    472     1
    450    469     1
    451    466     1
    451    460     1
    451   1018     1
    454    463     1
    454    460     1
    454    988     1
    457    463     1
    457    466     1
    457    478     1
    463   1009     1
    466    979     1
    472    970     1
    475   1000     1
    480    505     1
    480    502     1
    480    499     1
    481    496     1
    481    490     1
    481   1078     1
    484    493     1
    484    490     1
    484   1048     1
    487    493     1
    487    496     1
    487    508     1
    493   1069     1
    496   1039     1
    502   1030     1
    505   1060     1
    510    535     1
    510    532     1
    510    529     1
    511    526     1
    511    520     1
    511   1138     1
    514    523     1
    514    520     1
    514   1108     1
    517    523     1
    517    526     1
    517    538     1
    523   1129     1
    526   1099     1
    532   1090     1
    535   1120     1
    540    565     1
    540    562     1
    540    559     1
    541    556     1
    541    550     1
    541   1198     1
    544    553     1
    544    550     1
    544   1168     1
    547    553     1
    547    556     1
    547    568     1
    553   1189     1
    556   1159     1
    562   1150     1
    565   1180     1
    570    595     1
    570    592     1
    570    589     1
    571    586     1
    571    580     1
    571   1258     1
    574    583     1
    574    580     1
    574   1228     1
    577    583     1
    577    586     1
    577    598     1
    583   1249     1
    586   1219     1
    592   1210     1
    595   1240     1
    600    625     1
    600    622     1
    600    619     1
    601    616     1
    601    610     1
    601   1318     1
    604    613     1
    604    610     1
    604   1288     1
    607    613     1
    607    616     1
    607    628     1
    613   1309     1
    616   1279     1
    622   1270     1
    625   1300     1
    630    655     1
    630    652     1
    630    649     1
    631    646     1
    631    640     1
    631   1378     1
    634    643     1
    634    640     1
    634   1348     1
    637    643     1
    637    646     1
    637    658     1
    643   1369     1
    646   1339     1
    652   1330     1
    655   1360     1
    660    685     1
    660    682     1
    660    679     1
    661    676     1
    661    670     1
    661   1438     1
    664    673     1
    664    670     1
    664   1408     1
    667    673     1
    667    676     1
    667    688     1
    673   1429     1
    676   1399     1
    682   1390     1
    685   1420     1
    690    715     1
    690    712     1
    690    709     1
    691    706     1
    691    700     1
    691   1498     1
    694    703     1
    694    700     1
    694   1468     1
    697    703     1
    697    706     1
    697    718     1
    703   1489     1
    706   1459     1
    712   1450     1
    715   1480     1
    720    745     1
    720    742     1
    720    739     1
    721    736     1
    721    730     1
    721   1558     1
    724    733     1
    724    730     1
    724   1528     1
    727    733     1
    727    736     1
    727    748     1
    733   1549     1
    736   1519     1
    742   1510     1
    745   1540     1
    750    775     1
    750    772     1
    750    769     1
    751    766     1
    751    760     1
    751   1618     1
    754    763     1
    754    760     1
    754   1588     1
    757    763     1
    757    766     1
    757    778     1
    763   1609     1
    766   1579     1
    772   1570     1
    775   1600     1
    780    805     1
    780    802     1
    780    799     1
    781    796     1
    781    790     1
    781   1678     1
    784    793     1
    784    790     1
    784   1648     1
    787    793     1
    787    796     1
    787    808     1
    793   1669     1
    796   1639     1
    802   1630     1
    805   1660     1
    810    835     1
    810    832     1
    810    829     1
    811    826     1
    811    820     1
    811   1738     1
    814    823     1
    814    820     1
    814   1708     1
    817    823     1
    817    826     1
    817    838     1
    823   1729     1
    826   1699     1
    832   1690     1
    835   1720     1
    840    865     1
    840    862     1
    840    859     1
    841    856     1
    841    850     1
    841   1798     1
    844    853     1
    844    850     1
    844   1768     1
    847    853     1
    847    856     1
    847    868     1
    853   1789     1
    856   1759     1
    862   1750     1
    865   1780     1
    870    895     1
    870    892     1
    870    889     1
    871    886     1
    871    880     1
    871   1858     1
    874    883     1
    874    880     1
    874   1828     1
    877    883     1
    877    886     1
    877    898     1
    883   1849     1
    886   1819     1
    892   1810     1
    895   1840     1
    900    925     1
    900    922     1
    900    919     1
    901    916     1
    901    910     1
    901   1918     1
    904    913     1
    904    910     1
    904   1888     1
    907    913     1
    907    916     1
    907    928     1
    913   1909     1
    916   1879     1
    922   1870     1
    925   1900     1
    930    955     1
    930    952     1
    930    949     1
    931    946     1
    931    940     1
    931   1978     1
    934    943     1
    934    940     1
    934   1948     1
    937    943     1
    937    946     1
    937    958     1
    943   1969     1
    946   1939     1
    952   1930     1
    955   1960     1
    960    985     1
    960    982     1
    960    979     1
    961    976     1
    961    970     1
    961   2038     1
    964    973     1
    964    970     1
    964   2008     1
    967    973     1
    967    976     1
    967    988     1
    973   2029     1
    976   1999     1
    982   1990     1
    985   2020     1
    990   1015     1
    990   1012     1
    990   1009     1
    991   1006     1
    991   1000     1
    991   2098     1
    994   1003     1
    994   1000     1
    994   2068     1
    997   1003     1
    997   1006     1
    997   1018     1
   1003   2089     1
   1006   2059     1
   1012   2050     1
   1015   2080     1
   1020   1045     1
   1020   1042     1
   1020   1039     1
   1021   1036     1
   1021   1030     1
   1021   2158     1
   1024   1033     1
   1024   1030     1
   1024   2128     1
   1027   1033     1
   1027   1036     1
   1027   1048     1
   1033   2149     1
   1036   2119     1
   1042   2110     1
   1045   2140     1
   1050   1075     1
   1050   1072     1
   1050   1069     1
   1051   1066     1
   1051   1060     1
   1051   2218     1
   1054   1063     1
   1054   1060     1
   1054   2188     1
   1057   1063     1
   1057   1066     1
   1057   1078     1
   1063   2209     1
   1066   2179     1
   1072   2170     1
   1075   2200     1
   1080   1105     1
   1080   1102     1
   1080   1099     1
   1081   1096     1
   1081   1090     1
   1081   2278     1
   1084   1093     1
   1084   1090     1
   1084   2248     1
   1087   1093     1
   1087   1096     1
   1087   1108     1
   1093   2269     1
   1096   2239     1
   1102   2230     1
   1105   2260     1
   1110   1135     1
   1110   1132     1
   1110   1129     1
   1111   1126     1
   1111   1120     1
   1111   2338     1
   1114   1123     1
   1114   1120     1
   1114   2308     1
   1117   1123     1
   1117   1126     1
   1117   1138     1
   1123   2329     1
   1126   2299     1
   1132   2290     1
   1135   2320     1
   1140   1165     1
   1140   1162     1
   1140   1159     1
   1141   1156     1
   1141   1150     1
   1141   2398     1
   1144   1153     1
   1144   1150     1
   1144   2368     1
   1147   1153     1
   1147   1156     1
   1147   1168     1
   1153   2389     1
   1156   2359     1
   1162   2350     1
   1165   2380     1
   1170   1195     1
   1170   1192     1
   1170   1189     1
   1171   1186     1
   1171   1180     1
   1171   2458     1
   1174   1183     1
   1174   1180     1
   1174   2428     1
   1177   1183     1
   1177   1186     1
   1177   1198     1
   1183   2449     1
   1186   2419     1
   1192   2410     1
   1195   2440     1
   1200   1225     1
   1200   1222     1
   1200   1219     1
   1201   1216     1
   1201   1210     1
   1201   2518     1
   1204   1213     1
   1204   1210     1
   1204   2488     1
   1207   1213     1
   1207   1216     1
   1207   1228     1
   1213   2509     1
   1216   2479     1
   1222   2470     1
   1225   2500     1
   1230   1255     1
   1230   1252     1
   1230   1249     1
   1231   1246     1
   1231   1240     1
   1231   2578     1
   1234   1243     1
   1234   1240     1
   1234   2548     1
   1237   1243     1
   1237   1246     1
   1237   1258     1
   1243   2569     1
   1246   2539     1
   1252   2530     1
   1255   2560     1
   1260   1285     1
   1260   1282     1
   1260   1279     1
   1261   1276     1
   1261   1270     1
   1261   2638     1
   1264   1273     1
   1264   1270     1
   1264   2608     1
   1267   1273     1
   1267   1276     1
   1267   1288     1
   1273   2629     1
   1276   2599     1
   1282   2590     1
   1285   2620     1
   1290   1315     1
   1290   1312     1
   1290   1309     1
   1291   1306     1
   1291   1300     1
   1291   2698     1
   1294   1303     1
   1294   1300     1
   1294   2668     1
   1297   1303     1
   1297   1306     1
   1297   1318     1
   1303   2689     1
   1306   2659     1
   1312   2650     1
   1315   2680     1
   1320   1345     1
   1320   1342     1
   1320   1339     1
   1321   1336     1
   1321   1330     1
   1321   2758     1
   1324   1333     1
   1324   1330     1
   1324   2728     1
   1327   1333     1
   1327   1336     1
   1327   1348     1
   1333   2749     1
   1336   2719     1
   1342   2710     1
   1345   2740     1
   1350   1375     1
   1350   1372     1
   1350   1369     1
   1351   1366     1
   1351   1360     1
   1351   2818     1
   1354   1363     1
   1354   1360     1
   1354   2788     1
   1357   1363     1
   1357   1366     1
   1357   1378     1
   1363   2809     1
   1366   2779     1
   1372   2770     1
   1375   2800     1
   1380   1405     1
   1380   1402     1
   1380   1399     1
   1381   1396     1
   1381   1390     1
   1381   2846     1
   1384   1393     1
   1384   1390     1
   1384   2832     1
   1387   1393     1
   1387   1396     1
   1387   1408     1
   1393   2840     1
   1396   2826     1
   1402   2823     1
   1405   2837     1
   1410   1435     1
   1410   1432     1
   1410   1429     1
   1411   1426     1
   1411   1420     1
   1411   2874     1
   1414   1423     1
   1414   1420     1
   1414   2860     1
   1417   1423     1
   1417   1426     1
   1417   1438     1
   1423   2868     1
   1426   2854     1
   1432   2851     1
   1435   2865     1
   1440   1465     1
   1440   1462     1
   1440   1459     1
   1441   1456     1
   1441   1450     1
   1441   2902     1
   1444   1453     1
   1444   1450     1
   1444   2888     1
   1447   1453     1
   1447   1456     1
   1447   1468     1
   1453   2896     1
   1456   2882     1
   1462   2879     1
   1465   2893     1
   1470   1495     1
   1470   1492     1
   1470   1489     1
   1471   1486     1
   1471   1480     1
   1471   2930     1
   1474   1483     1
   1474   1480     1
   1474   2916     1
   1477   1483     1
   1477   1486     1
   1477   1498     1
   1483   2924     1
   1486   2910     1
   1492   2907     1
   1495   2921     1
   1500   1525     1
   1500   1522     1
   1500   1519     1
   1501   1516     1
   1501   1510     1
   1501   2958     1
   1504   1513     1
   1504   1510     1
   1504   2944     1
   1507   1513     1
   1507   1516     1
   1507   1528     1
   1513   2952     1
   1516   2938     1
   1522   2935     1
   1525   2949     1
   1530   1555     1
   1530   1552     1
   1530   1549     1
   1531   1546     1
   1531   1540     1
   1531   2986     1
   1534   1543     1
   1534   1540     1
   1534   2972     1
   1537   1543     1
   1537   1546     1
   1537   1558     1
   1543   2980     1
   1546   2966     1
   1552   2963     1
   1555   2977     1
   1560   1585     1
   1560   1582     1
   1560   1579     1
   1561   1576     1
   1561   1570     1
   1561   3014     1
   1564   1573     1
   1564   1570     1
   1564   3000     1
   1567   1573     1
   1567   1576     1
   1567   1588     1
   1573   3008     1
   1576   2994     1
   1582   2991     1
   1585   3005     1
   1590   1615     1
   1590   1612     1
   1590   1609     1
   1591   1606     1
   1591   1600     1
   1591   3042     1
   1594   1603     1
   1594   1600     1
   1594   3028     1
   1597   1603     1
   1597   1606     1
   1597   1618     1
   1603   3036     1
   1606   3022     1
   1612   3019     1
   1615   3033     1
   1620   1645     1
   1620   1642     1
   1620   1639     1
   1621   1636     1
   1621   1630     1
   1621   3070     1
   1624   1633     1
   1624   1630     1
   1624   3056     1
   1627   1633     1
   1627   1636     1
   1627   1648     1
   1633   3064     1
   1636   3050     1
   1642   3047     1
   1645   3061     1
   1650   1675     1
   1650   1672     1
   1650   1669     1
   1651   1666     1
   1651   1660     1
   1651   3098     1
   1654   1663     1
   1654   1660     1
   1654   3084     1
   1657   1663     1
   1657   1666     1
   1657   1678     1
   1663   3092     1
   1666   3078     1
   1672   3075     1
   1675   3089     1
   1680   1705     1
   1680   1702     1
   1680   1699     1
   1681   1696     1
   1681   1690     1
   1681   3126     1
   1684   1693     1
   1684   1690     1
   1684   3112     1
   1687   1693     1
   1687   1696     1
   1687   1708     1
   1693   3120     1
   1696   3106     1
   1702   3103     1
   1705   3117     1
   1710   1735     1
   1710   1732     1
   1710   1729     1
   1711   1726     1
   1711   1720     1
   1711   3154     1
   1714   1723     1
   1714   1720     1
   1714   3140     1
   1717   1723     1
   1717   1726     1
   1717   1738     1
   1723   3148     1
   1726   3134     1
   1732   3131     1
   1735   3145     1
   1740   1765     1
   1740   1762     1
   1740   1759     1
   1741   1756     1
   1741   1750     1
   1741   3182     1
   1744   1753     1
   1744   1750     1
   1744   3168     1
   1747   1753     1
   1747   1756     1
   1747   1768     1
   1753   3176     1
   1756   3162     1
   1762   3159     1
   1765   3173     1
   1770   1795     1
   1770   1792     1
   1770   1789     1
   1771   1786     1
   1771   1780     1
   1771   3210     1
   1774   1783     1
   1774   1780     1
   1774   3196     1
   1777   1783     1
   1777   1786     1
   1777   1798     1
   1783   3204     1
   1786   3190     1
   1792   3187     1
   1795   3201     1
   1800   1825     1
   1800   1822     1
   1800   1819     1
   1801   1816     1
   1801   1810     1
   1801   3238     1
   1804   1813     1
   1804   1810     1
   1804   3224     1
   1807   1813     1
   1807   1816     1
   1807   1828     1
   1813   3232     1
   1816   3218     1
   1822   3215     1
   1825   3229     1
   1830   1855     1
   1830   1852     1
   1830   1849     1
   1831   1846     1
   1831   1840     1
   1831   3266     1
   1834   1843     1
   1834   1840     1
   1834   3252     1
   1837   1843     1
   1837   1846     1
   1837   1858     1
   1843   3260     1
   1846   3246     1
   1852   3243     1
   1855   3257     1
   1860   1885     1
   1860   1882     1
   1860   1879     1
   1861   1876     1
   1861   1870     1
   1861   3294     1
   1864   1873     1
   1864   1870     1
   1864   3280     1
   1867   1873     1
   1867   1876     1
   1867   1888     1
   1873   3288     1
   1876   3274     1
   1882   3271     1
   1885   3285     1
   1890   1915     1
   1890   1912     1
   1890   1909     1
   1891   1906     1
   1891   1900     1
   1891   3322     1
   1894   1903     1
   1894   1900     1
   1894   3308     1
   1897   1903     1
   1897   1906     1
   1897   1918     1
   1903   3316     1
   1906   3302     1
   1912   3299     1
   1915   3313     1
   1920   1945     1
   1920   1942     1
   1920   1939     1
   1921   1936     1
   1921   1930     1
   1921   3350     1
   1924   1933     1
   1924   1930     1
   1924   3336     1
   1927   1933     1
   1927   1936     1
   1927   1948     1
   1933   3344     1
   1936   3330     1
   1942   3327     1
   1945   3341     1
   1950   1975     1
   1950   1972     1
   1950   1969     1
   1951   1966     1
   1951   1960     1
   1951   3378     1
   1954   1963     1
   1954   1960     1
   1954   3364     1
   1957   1963     1
   1957   1966     1
   1957   1978     1
   1963   3372     1
   1966   3358     1
   1972   3355     1
   1975   3369     1
   1980   2005     1
   1980   2002     1
   1980   1999     1
   1981   1996     1
   1981   1990     1
   1981   3406     1
   1984   1993     1
   1984   1990     1
   1984   3392     1
   1987   1993     1
   1987   1996     1
   1987   2008     1
   1993   3400     1
   1996   3386     1
   2002   3383     1
   2005   3397     1
   2010   2035     1
   2010   2032     1
   2010   2029     1
   2011   2026     1
   2011   2020     1
   2011   3434     1
   2014   2023     1
   2014   2020     1
   2014   3420     1
   2017   2023     1
   2017   2026     1
   2017   2038     1
   2023   3428     1
   2026   3414     1
   2032   3411     1
   2035   3425     1
   2040   2065     1
   2040   2062     1
   2040   2059     1
   2041   2056     1
   2041   2050     1
   2041   3462     1
   2044   2053     1
   2044   2050     1
   2044   3448     1
   2047   2053     1
   2047   2056     1
   2047   2068     1
   2053   3456     1
   2056   3442     1
   2062   3439     1
   2065   3453     1
   2070   2095     1
   2070   2092     1
   2070   2089     1
   2071   2086     1
   2071   2080     1
   2071   3490     1
   2074   2083     1
   2074   2080     1
   2074   3476     1
   2077   2083     1
   2077   2086     1
   2077   2098     1
   2083   3484     1
   2086   3470     1
   2092   3467     1
   2095   3481     1
   2100   2125     1
   2100   2122     1
   2100   2119     1
   2101   2116     1
   2101   2110     1
   2101   3518     1
   2104   2113     1
   2104   2110     1
   2104   3504     1
   2107   2113     1
   2107   2116     1
   2107   2128     1
   2113   3512     1
   2116   3498     1
   2122   3495     1
   2125   3509     1
   2130   2155     1
   2130   2152     1
   2130   2149     1
   2131   2146     1
   2131   2140     1
   2131   3546     1
   2134   2143     1
   2134   2140     1
   2134   3532     1
   2137   2143     1
   2137   2146     1
   2137   2158     1
   2143   3540     1
   2146   3526     1
   2152   3523     1
   2155   3537     1
   2160   2185     1
   2160   2182     1
   2160   2179     1
   2161   2176     1
   2161   2170     1
   2161   3574     1
   2164   2173     1
   2164   2170     1
   2164   3560     1
   2167   2173     1
   2167   2176     1
   2167   2188     1
   2173   3568     1
   2176   3554     1
   2182   3551     1
   2185   3565     1
   2190   2215     1
   2190   2212     1
   2190   2209     1
   2191   2206     1
   2191   2200     1
   2191   3602     1
   2194   2203     1
   2194   2200     1
   2194   3588     1
   2197   2203     1
   2197   2206     1
   2197   2218     1
   2203   3596     1
   2206   3582     1
   2212   3579     1
   2215   3593     1
   2220   2245     1
   2220   2242     1
   2220   2239     1
   2221   2236     1
   2221   2230     1
   2221   3630     1
   2224   2233     1
   2224   2230     1
   2224   3616     1
   2227   2233     1
   2227   2236     1
   2227   2248     1
   2233   3624     1
   2236   3610     1
   2242   3607     1
   2245   3621     1
   2250   2275     1
   2250   2272     1
   2250   2269     1
   2251   2266     1
   2251   2260     1
   2251   3658     1
   2254   2263     1
   2254   2260     1
   2254   3644     1
   2257   2263     1
   2257   2266     1
   2257   2278     1
   2263   3652     1
   2266   3638     1
   2272   3635     1
   2275   3649     1
   2280   2305     1
   2280   2302     1
   2280   2299     1
   2281   2296     1
   2281   2290     1
   2281   3686     1
   2284   2293     1
   2284   2290     1
   2284   3672     1
   2287   2293     1
   2287   2296     1
   2287   2308     1
   2293   3680     1
   2296   3666     1
   2302   3663     1
   2305   3677     1
   2310   2335     1
   2310   2332     1
   2310   2329     1
   2311   2326     1
   2311   2320     1
   2311   3714     1
   2314   2323     1
   2314   2320     1
   2314   3700     1
   2317   2323     1
   2317   2326     1
   2317   2338     1
   2323   3708     1
   2326   3694     1
   2332   3691     1
   2335   3705     1
   2340   2365     1
   2340   2362     1
   2340   2359     1
   2341   2356     1
   2341   2350     1
   2341   3742     1
   2344   2353     1
   2344   2350     1
   2344   3728     1
   2347   2353     1
   2347   2356     1
   2347   2368     1
   2353   3736     1
   2356   3722     1
   2362   3719     1
   2365   3733     1
   2370   2395     1
   2370   2392     1
   2370   2389     1
   2371   2386     1
   2371   2380     1
   2371   3770     1
   2374   2383     1
   2374   2380     1
   2374   3756     1
   2377   2383     1
   2377   2386     1
   2377   2398     1
   2383   3764     1
   2386   3750     1
   2392   3747     1
   2395   3761     1
   2400   2425     1
   2400   2422     1
   2400   2419     1
   2401   2416     1
   2401   2410     1
   2401   3798     1
   2404   2413     1
   2404   2410     1
   2404   3784     1
   2407   2413     1
   2407   2416     1
   2407   2428     1
   2413   3792     1
   2416   3778     1
   2422   3775     1
   2425   3789     1
   2430   2455     1
   2430   2452     1
   2430   2449     1
   2431   2446     1
   2431   2440     1
   2431   3826     1
   2434   2443     1
   2434   2440     1
   2434   3812     1
   2437   2443     1
   2437   2446     1
   2437   2458     1
   2443   3820     1
   2446   3806     1
   2452   3803     1
   2455   3817     1
   2460   2485     1
   2460   2482     1
   2460   2479     1
   2461   2476     1
   2461   2470     1
   2461   3854     1
   2464   2473     1
   2464   2470     1
   2464   3840     1
   2467   2473     1
   2467   2476     1
   2467   2488     1
   2473   3848     1
   2476   3834     1
   2482   3831     1
   2485   3845     1
   2490   2515     1
   2490   2512     1
   2490   2509     1
   2491   2506     1
   2491   2500     1
   2491   3882     1
   2494   2503     1
   2494   2500     1
   2494   3868     1
   2497   2503     1
   2497   2506     1
   2497   2518     1
   2503   3876     1
   2506   3862     1
   2512   3859     1
   2515   3873     1
   2520   2545     1
   2520   2542     1
   2520   2539     1
   2521   2536     1
   2521   2530     1
   2521   3910     1
   2524   2533     1
   2524   2530     1
   2524   3896     1
   2527   2533     1
   2527   2536     1
   2527   2548     1
   2533   3904     1
   2536   3890     1
   2542   3887     1
   2545   3901     1
   2550   2575     1
   2550   2572     1
   2550   2569     1
   2551   2566     1
   2551   2560     1
   2551   3938     1
   2554   2563     1
   2554   2560     1
   2554   3924     1
   2557   2563     1
   2557   2566     1
   2557   2578     1
   2563   3932     1
   2566   3918     1
   2572   3915     1
   2575   3929     1
   2580   2605     1
   2580   2602     1
   2580   2599     1
   2581   2596     1
   2581   2590     1
   2581   3966     1
   2584   2593     1
   2584   2590     1
   2584   3952     1
   2587   2593     1
   2587   2596     1
   2587   2608     1
   2593   3960     1
   2596   3946     1
   2602   3943     1
   2605   3957     1
   2610   2635     1
   2610   2632     1
   2610   2629     1
   2611   2626     1
   2611   2620     1
   2611   3994     1
   2614   2623     1
   2614   2620     1
   2614   3980     1
   2617   2623     1
   2617   2626     1
   2617   2638     1
   2623   3988     1
   2626   3974     1
   2632   3971     1
   2635   3985     1
   2640   2665     1
   2640   2662     1
   2640   2659     1
   2641   2656     1
   2641   2650     1
   2641   4022     1
   2644   2653     1
   2644   2650     1
   2644   4008     1
   2647   2653     1
   2647   2656     1
   2647   2668     1
   2653   4016     1
   2656   4002     1
   2662   3999     1
   2665   4013     1
   2670   2695     1
   2670   2692     1
   2670   2689     1
   2671   2686     1
   2671   2680     1
   2671   4050     1
   2674   2683     1
   2674   2680     1
   2674   4036     1
   2677   2683     1
   2677   2686     1
   2677   2698     1
   2683   4044     1
   2686   4030     1
   2692   4027     1
   2695   4041     1
   2700   2725     1
   2700   2722     1
   2700   2719     1
   2701   2716     1
   2701   2710     1
   2701   4078     1
   2704   2713     1
   2704   2710     1
   2704   4064     1
   2707   2713     1
   2707   2716     1
   2707   2728     1
   2713   4072     1
   2716   4058     1
   2722   4055     1
   2725   4069     1
   2730   2755     1
   2730   2752     1
   2730   2749     1
   2731   2746     1
   2731   2740     1
   2731   4106     1
   2734   2743     1
   2734   2740     1
   2734   4092     1
   2737   2743     1
   2737   2746     1
   2737   2758     1
   2743   4100     1
   2746   4086     1
   2752   4083     1
   2755   4097     1
   2760   2785     1
   2760   2782     1
   2760   2779     1
   2761   2776     1
   2761   2770     1
   2761   4134     1
   2764   2773     1
   2764   2770     1
   2764   4120     1
   2767   2773     1
   2767   2776     1
   2767   2788     1
   2773   4128     1
   2776   4114     1
   2782   4111     1
   2785   4125     1
   2790   2815     1
   2790   2812     1
   2790   2809     1
   2791   2806     1
   2791   2800     1
   2791   4162     1
   2794   2803     1
   2794   2800     1
   2794   4148     1
   2797   2803     1
   2797   2806     1
   2797   2818     1
   2803   4156     1
   2806   4142     1
   2812   4139     1
   2815   4153     1
   2820   2832     1
   2826   2829     1
   2834   2846     1
   2840   2843     1
   2848   2860     1
   2854   2857     1
   2862   2874     1
   2868   2871     1
   2876   2888     1
   2882   2885     1
   2890   2902     1
   2896   2899     1
   2904   2916     1
   2910   2913     1
   2918   2930     1
   2924   2927     1
   2932   2944     1
   2938   2941     1
   2946   2958     1
   2952   2955     1
   2960   2972     1
   2966   2969     1
   2974   2986     1
   2980   2983     1
   2988   3000     1
   2994   2997     1
   3002   3014     1
   3008   3011     1
   3016   3028     1
   3022   3025     1
   3030   3042     1
   3036   3039     1
   3044   3056     1
   3050   3053     1
   3058   3070     1
   3064   3067     1
   3072   3084     1
   3078   3081     1
   3086   3098     1
   3092   3095     1
   3100   3112     1
   3106   3109     1
   3114   3126     1
   3120   3123     1
   3128   3140     1
   3134   3137     1
   3142   3154     1
   3148   3151     1
   3156   3168     1
   3162   3165     1
   3170   3182     1
   3176   3179     1
   3184   3196     1
   3190   3193     1
   3198   3210     1
   3204   3207     1
   3212   3224     1
   3218   3221     1
   3226   3238     1
   3232   3235     1
   3240   3252     1
   3246   3249     1
   3254   3266     1
   3260   3263     1
   3268   3280     1
   3274   3277     1
   3282   3294     1
   3288   3291     1
   3296   3308     1
   3302   3305     1
   3310   3322     1
   3316   3319     1
   3324   3336     1
   3330   3333     1
   3338   3350     1
   3344   3347     1
   3352   3364     1
   3358   3361     1
   3366   3378     1
   3372   3375     1
   3380   3392     1
   3386   3389     1
   3394   3406     1
   3400   3403     1
   3408   3420     1
   3414   3417     1
   3422   3434     1
   3428   3431     1
   3436   3448     1
   3442   3445     1
   3450   3462     1
   3456   3459     1
   3464   3476     1
   3470   3473     1
   3478   3490     1
   3484   3487     1
   3492   3504     1
   3498   3501     1
   3506   3518     1
   3512   3515     1
   3520   3532     1
   3526   3529     1
   3534   3546     1
   3540   3543     1
   3548   3560     1
   3554   3557     1
   3562   3574     1
   3568   3571     1
   3576   3588     1
   3582   3585     1
   3590   3602     1
   3596   3599     1
   3604   3616     1
   3610   3613     1
   3618   3630     1
   3624   3627     1
   3632   3644     1
   3638   3641     1
   3646   3658     1
   3652   3655     1
   3660   3672     1
   3666   3669     1
   3674   3686     1
   3680   3683     1
   3688   3700     1
   3694   3697     1
   3702   3714     1
   3708   3711     1
   3716   3728     1
   3722   3725     1
   3730   3742     1
   3736   3739     1
   3744   3756     1
   3750   3753     1
   3758   3770     1
   3764   3767     1
   3772   3784     1
   3778   3781     1
   3786   3798     1
   3792   3795     1
   3800   3812     1
   3806   3809     1
   3814   3826     1
   3820   3823     1
   3828   3840     1
   3834   3837     1
   3842   3854     1
   3848   3851     1
   3856   3868     1
   3862   3865     1
   3870   3882     1
   3876   3879     1
   3884   3896     1
   3890   3893     1
   3898   3910     1
   3904   3907     1
   3912   3924     1
   3918   3921     1
   3926   3938     1
   3932   3935     1
   3940   3952     1
   3946   3949     1
   3954   3966     1
   3960   3963     1
   3968   3980     1
   3974   3977     1
   3982   3994     1
   3988   3991     1
   3996   4008     1
   4002   4005     1
   4010   4022     1
   4016   4019     1
   4024   4036     1
   4030   4033     1
   4038   4050     1
   4044   4047     1
   4052   4064     1
   4058   4061     1
   4066   4078     1
   4072   4075     1
   4080   4092     1
   4086   4089     1
   4094   4106     1
   4100   4103     1
   4108   4120     1
   4114   4117     1
   4122   4134     1
   4128   4131     1
   4136   4148     1
   4142   4145     1
   4150   4162     1
   4156   4159     1
      1     15     1
      1     16     1
      1     18     1
      1     19     1
      1     12     1
      1     13     1
      2      6     1
      2      7     1
      2      9     1
      2     10     1
      2     27     1
      2     28     1
      5      3     1
      8      3     1
     29      3     1
      3     26     1
      3     15     1
      3     16     1
      5      4     1
      8      4     1
     29      4     1
      4     26     1
      4     15     1
      4     16     1
      5      9     1
      5     10     1
      5     21     1
      5     22     1
      8      6     1
     29      6     1
      6     20     1
      6     18     1
      6     19     1
      8      7     1
     29      7     1
      7     20     1
      7     18     1
      7     19     1
      8     24     1
      8     25     1
     29      9     1
      9     23     1
      9     12     1
      9     13     1
     29     10     1
     10     23     1
     10     12     1
     10     13     1
     29     11     1
     12     88     1
     12     24     1
     12     25     1
     13     88     1
     13     24     1
     13     25     1
     29     14     1
     15    118     1
     15     27     1
     15     28     1
     16    118     1
     16     27     1
     16     28     1
     29     17     1
     18     58     1
     18     21     1
     18     22     1
     19     58     1
     19     21     1
     19     22     1
     20     50     1
     20     51     1
     21     49     1
     22     49     1
     23     80     1
     23     81     1
     24     79     1
     25     79     1
     26    110     1
     26    111     1
     27    109     1
     28    109     1
     30     44     1
     30     45     1
     30     47     1
     30     48     1
     30     41     1
     30     42     1
     31     35     1
     31     36     1
     31     38     1
     31     39     1
     31     56     1
     31     57     1
     32     34     1
     32     37     1
     32     59     1
     32     55     1
     32     44     1
     32     45     1
     33     34     1
     33     37     1
     33     59     1
     33     55     1
     33     44     1
     33     45     1
     34     38     1
     34     39     1
     34     53     1
     34     54     1
     35     37     1
     35     59     1
     35     52     1
     35     47     1
     35     48     1
     36     37     1
     36     59     1
     36     52     1
     36     47     1
     36     48     1
     37     50     1
     37     51     1
     38     59     1
     38     49     1
     38     41     1
     38     42     1
     39     59     1
     39     49     1
     39     41     1
     39     42     1
     40     59     1
     41     58     1
     41     50     1
     41     51     1
     42     58     1
     42     50     1
     42     51     1
     43     59     1
     44    178     1
     44     56     1
     44     57     1
     45    178     1
     45     56     1
     45     57     1
     46     59     1
     47    148     1
     47     53     1
     47     54     1
     48    148     1
     48     53     1
     48     54     1
     52    140     1
     52    141     1
     53    139     1
     54    139     1
     55    170     1
     55    171     1
     56    169     1
     57    169     1
     60     74     1
     60     75     1
     60     77     1
     60     78     1
     60     71     1
     60     72     1
     61     65     1
     61     66     1
     61     68     1
     61     69     1
     61     86     1
     61     87     1
     62     64     1
     62     67     1
     62     89     1
     62     85     1
     62     74     1
     62     75     1
     63     64     1
     63     67     1
     63     89     1
     63     85     1
     63     74     1
     63     75     1
     64     68     1
     64     69     1
     64     83     1
     64     84     1
     65     67     1
     65     89     1
     65     82     1
     65     77     1
     65     78     1
     66     67     1
     66     89     1
     66     82     1
     66     77     1
     66     78     1
     67     80     1
     67     81     1
     68     89     1
     68     79     1
     68     71     1
     68     72     1
     69     89     1
     69     79     1
     69     71     1
     69     72     1
     70     89     1
     71     88     1
     71     80     1
     71     81     1
     72     88     1
     72     80     1
     72     81     1
     73     89     1
     74    238     1
     74     86     1
     74     87     1
     75    238     1
     75     86     1
     75     87     1
     76     89     1
     77    208     1
     77     83     1
     77     84     1
     78    208     1
     78     83     1
     78     84     1
     82    200     1
     82    201     1
     83    199     1
     84    199     1
     85    230     1
     85    231     1
     86    229     1
     87    229     1
     90    104     1
     90    105     1
     90    107     1
     90    108     1
     90    101     1
     90    102     1
     91     95     1
     91     96     1
     91     98     1
     91     99     1
     91    116     1
     91    117     1
     92     94     1
     92     97     1
     92    119     1
     92    115     1
     92    104     1
     92    105     1
     93     94     1
     93     97     1
     93    119     1
     93    115     1
     93    104     1
     93    105     1
     94     98     1
     94     99     1
     94    113     1
     94    114     1
     95     97     1
     95    119     1
     95    112     1
     95    107     1
     95    108     1
     96     97     1
     96    119     1
     96    112     1
     96    107     1
     96    108     1
     97    110     1
     97    111     1
     98    119     1
     98    109     1
     98    101     1
     98    102     1
     99    119     1
     99    109     1
     99    101     1
     99    102     1
    100    119     1
    101    118     1
    101    110     1
    101    111     1
    102    118     1
    102    110     1
    102    111     1
    103    119     1
    104    298     1
    104    116     1
    104    117     1
    105    298     1
    105    116     1
    105    117     1
    106    119     1
    107    268     1
    107    113     1
    107    114     1
    108    268     1
    108    113     1
    108    114     1
    112    260     1
    112    261     1
    113    259     1
    114    259     1
    115    290     1
    115    291     1
    116    289     1
    117    289     1
    120    134     1
    120    135     1
    120    137     1
    120    138     1
    120    131     1
    120    132     1
    121    125     1
    121    126     1
    121    128     1
    121    129     1
    121    146     1
    121    147     1
    122    124     1
    122    127     1
    122    149     1
    122    145     1
    122    134     1
    122    135     1
    123    124     1
    123    127     1
    123    149     1
    123    145     1
    123    134     1
    123    135     1
    124    128     1
    124    129     1
    124    143     1
    124    144     1
    125    127     1
    125    149     1
    125    142     1
    125    137     1
    125    138     1
    126    127     1
    126    149     1
    126    142     1
    126    137     1
    126    138     1
    127    140     1
    127    141     1
    128    149     1
    128    139     1
    128    131     1
    128    132     1
    129    149     1
    129    139     1
    129    131     1
    129    132     1
    130    149     1
    131    148     1
    131    140     1
    131    141     1
    132    148     1
    132    140     1
    132    141     1
    133    149     1
    134    358     1
    134    146     1
    134    147     1
    135    358     1
    135    146     1
    135    147     1
    136    149     1
    137    328     1
    137    143     1
    137    144     1
    138    328     1
    138    143     1
    138    144     1
    142    320     1
    142    321     1
    143    319     1
    144    319     1
    145    350     1
    145    351     1
    146    349     1
    147    349     1
    150    164     1
    150    165     1
    150    167     1
    150    168     1
    150    161     1
    150    162     1
    151    155     1
    151    156     1
    151    158     1
    151    159     1
    151    176     1
    151    177     1
    152    154     1
    152    157     1
    152    179     1
    152    175     1
    152    164     1
    152    165     1
    153    154     1
    153    157     1
    153    179     1
    153    175     1
    153    164     1
    153    165     1
    154    158     1
    154    159     1
    154    173     1
    154    174     1
    155    157     1
    155    179     1
    155    172     1
    155    167     1
    155    168     1
    156    157     1
    156    179     1
    156    172     1
    156    167     1
    156    168     1
    157    170     1
    157    171     1
    158    179     1
    158    169     1
    158    161     1
    158    162     1
    159    179     1
    159    169     1
    159    161     1
    159    162     1
    160    179     1
    161    178     1
    161    170     1
    161    171     1
    162    178     1
    162    170     1
    162    171     1
    163    179     1
    164    418     1
    164    176     1
    164    177     1
    165    418     1
    165    176     1
    165    177     1
    166    179     1
    167    388     1
    167    173     1
    167    174     1
    168    388     1
    168    173     1
    168    174     1
    172    380     1
    172    381     1
    173    379     1
    174    379     1
    175    410     1
    175    411     1
    176    409     1
    177    409     1
    180    194     1
    180    195     1
    180    197     1
    180    198     1
    180    191     1
    180    192     1
    181    185     1
    181    186     1
    181    188     1
    181    189     1
    181    206     1
    181    207     1
    182    184     1
    182    187     1
    182    209     1
    182    205     1
    182    194     1
    182    195     1
    183    184     1
    183    187     1
    183    209     1
    183    205     1
    183    194     1
    183    195     1
    184    188     1
    184    189     1
    184    203     1
    184    204     1
    185    187     1
    185    209     1
    185    202     1
    185    197     1
    185    198     1
    186    187     1
    186    209     1
    186    202     1
    186    197     1
    186    198     1
    187    200     1
    187    201     1
    188    209     1
    188    199     1
    188    191     1
    188    192     1
    189    209     1
    189    199     1
    189    191     1
    189    192     1
    190    209     1
    191    208     1
    191    200     1
    191    201     1
    192    208     1
    192    200     1
    192    201     1
    193    209     1
    194    478     1
    194    206     1
    194    207     1
    195    478     1
    195    206     1
    195    207     1
    196    209     1
    197    448     1
    197    203     1
    197    204     1
    198    448     1
    198    203     1
    198    204     1
    202    440     1
    202    441     1
    203    439     1
    204    439     1
    205    470     1
    205    471     1
    206    469     1
    207    469     1
    210    224     1
    210    225     1
    210    227     1
    210    228     1
    210    221     1
    210    222     1
    211    215     1
    211    216     1
    211    218     1
    211    219     1
    211    236     1
    211    237     1
    212    214     1
    212    217     1
    212    239     1
    212    235     1
    212    224     1
    212    225     1
    213    214     1
    213    217     1
    213    239     1
    213    235     1
    213    224     1
    213    225     1
    214    218     1
    214    219     1
    214    233     1
    214    234     1
    215    217     1
    215    239     1
    215    232     1
    215    227     1
    215    228     1
    216    217     1
    216    239     1
    216    232     1
    216    227     1
    216    228     1
    217    230     1
    217    231     1
    218    239     1
    218    229     1
    218    221     1
    218    222     1
    219    239     1
    219    229     1
    219    221     1
    219    222     1
    220    239     1
    221    238     1
    221    230     1
    221    231     1
    222    238     1
    222    230     1
    222    231     1
    223    239     1
    224    538     1
    224    236     1
    224    237     1
    225    538     1
    225    236     1
    225    237     1
    226    239     1
    227    508     1
    227    233     1
    227    234     1
    228    508     1
    228    233     1
    228    234     1
    232    500     1
    232    501     1
    233    499     1
    234    499     1
    235    530     1
    235    531     1
    236    529     1
    237    529     1
    240    254     1
    240    255     1
    240    257     1
    240    258     1
    240    251     1
    240    252     1
    241    245     1
    241    246     1
    241    248     1
    241    249     1
    241    266     1
    241    267     1
    242    244     1
    242    247     1
    242    269     1
    242    265     1
    242    254     1
    242    255     1
    243    244     1
    243    247     1
    243    269     1
    243    265     1
    243    254     1
    243    255     1
    244    248     1
    244    249     1
    244    263     1
    244    264     1
    245    247     1
    245    269     1
    245    262     1
    245    257     1
    245    258     1
    246    247     1
    246    269     1
    246    262     1
    246    257     1
    246    258     1
    247    260     1
    247    261     1
    248    269     1
    248    259     1
    248    251     1
    248    252     1
    249    269     1
    249    259     1
    249    251     1
    249    252     1
    250    269     1
    251    268     1
    251    260     1
    251    261     1
    252    268     1
    252    260     1
    252    261     1
    253    269     1
    254    598     1
    254    266     1
    254    267     1
    255    598     1
    255    266     1
    255    267     1
    256    269     1
    257    568     1
    257    263     1
    257    264     1
    258    568     1
    258    263     1
    258    264     1
    262    560     1
    262    561     1
    263    559     1
    264    559     1
    265    590     1
    265    591     1
    266    589     1
    267    589     1
    270    284     1
    270    285     1
    270    287     1
    270    288     1
    270    281     1
    270    282     1
    271    275     1
    271    276     1
    271    278     1
    271    279     1
    271    296     1
    271    297     1
    272    274     1
    272    277     1
    272    299     1
    272    295     1
    272    284     1
    272    285     1
    273    274     1
    273    277     1
    273    299     1
    273    295     1
    273    284     1
    273    285     1
    274    278     1
    274    279     1
    274    293     1
    274    294     1
    275    277     1
    275    299     1
    275    292     1
    275    287     1
    275    288     1
    276    277     1
    276    299     1
    276    292     1
    276    287     1
    276    288     1
    277    290     1
    277    291     1
    278    299     1
    278    289     1
    278    281     1
    278    282     1
    279    299     1
    279    289     1
    279    281     1
    279    282     1
    280    299     1
    281    298     1
    281    290     1
    281    291     1
    282    298     1
    282    290     1
    282    291     1
    283    299     1
    284    658     1
    284    296     1
    284    297     1
    285    658     1
    285    296     1
    285    297     1
    286    299     1
    287    628     1
    287    293     1
    287    294     1
    288    628     1
    288    293     1
    288    294     1
    292    620     1
    292    621     1
    293    619     1
    294    619     1
    295    650     1
    295    651     1
    296    649     1
    297    649     1
    300    314     1
    300    315     1
    300    317     1
    300    318     1
    300    311     1
    300    312     1
    301    305     1
    301    306     1
    301    308     1
    301    309     1
    301    326     1
    301    327     1
    302    304     1
    302    307     1
    302    329     1
    302    325     1
    302    314     1
    302    315     1
    303    304     1
    303    307     1
    303    329     1
    303    325     1
    303    314     1
    303    315     1
    304    308     1
    304    309     1
    304    323     1
    304    324     1
    305    307     1
    305    329     1
    305    322     1
    305    317     1
    305    318     1
    306    307     1
    306    329     1
    306    322     1
    306    317     1
    306    318     1
    307    320     1
    307    321     1
    308    329     1
    308    319     1
    308    311     1
    308    312     1
    309    329     1
    309    319     1
    309    311     1
    309    312     1
    310    329     1
    311    328     1
    311    320     1
    311    321     1
    312    328     1
    312    320     1
    312    321     1
    313    329     1
    314    718     1
    314    326     1
    314    327     1
    315    718     1
    315    326     1
    315    327     1
    316    329     1
    317    688     1
    317    323     1
    317    324     1
    318    688     1
    318    323     1
    318    324     1
    322    680     1
    322    681     1
    323    679     1
    324    679     1
    325    710     1
    325    711     1
    326    709     1
    327    709     1
    330    344     1
    330    345     1
    330    347     1
    330    348     1
    330    341     1
    330    342     1
    331    335     1
    331    336     1
    331    338     1
    331    339     1
    331    356     1
    331    357     1
    332    334     1
    332    337     1
    332    359     1
    332    355     1
    332    344     1
    332    345     1
    333    334     1
    333    337     1
    333    359     1
    333    355     1
    333    344     1
    333    345     1
    334    338     1
    334    339     1
    334    353     1
    334    354     1
    335    337     1
    335    359     1
    335    352     1
    335    347     1
    335    348     1
    336    337     1
    336    359     1
    336    352     1
    336    347     1
    336    348     1
    337    350     1
    337    351     1
    338    359     1
    338    349     1
    338    341     1
    338    342     1
    339    359     1
    339    349     1
    339    341     1
    339    342     1
    340    359     1
    341    358     1
    341    350     1
    341    351     1
    342    358     1
    342    350     1
    342    351     1
    343    359     1
    344    778     1
    344    356     1
    344    357     1
    345    778     1
    345    356     1
    345    357     1
    346    359     1
    347    748     1
    347    353     1
    347    354     1
    348    748     1
    348    353     1
    348    354     1
    352    740     1
    352    741     1
    353    739     1
    354    739     1
    355    770     1
    355    771     1
    356    769     1
    357    769     1
    360    374     1
    360    375     1
    360    377     1
    360    378     1
    360    371     1
    360    372     1
    361    365     1
    361    366     1
    361    368     1
    361    369     1
    361    386     1
    361    387     1
    362    364     1
    362    367     1
    362    389     1
    362    385     1
    362    374     1
    362    375     1
    363    364     1
    363    367     1
    363    389     1
    363    385     1
    363    374     1
    363    375     1
    364    368     1
    364    369     1
    364    383     1
    364    384     1
    365    367     1
    365    389     1
    365    382     1
    365    377     1
    365    378     1
    366    367     1
    366    389     1
    366    382     1
    366    377     1
    366    378     1
    367    380     1
    367    381     1
    368    389     1
    368    379     1
    368    371     1
    368    372     1
    369    389     1
    369    379     1
    369    371     1
    369    372     1
    370    389     1
    371    388     1
    371    380     1
    371    381     1
    372    388     1
    372    380     1
    372    381     1
    373    389     1
    374    838     1
    374    386     1
    374    387     1
    375    838     1
    375    386     1
    375    387     1
    376    389     1
    377    808     1
    377    383     1
    377    384     1
    378    808     1
    378    383     1
    378    384     1
    382    800     1
    382    801     1
    383    799     1
    384    799     1
    385    830     1
    385    831     1
    386    829     1
    387    829     1
    390    404     1
    390    405     1
    390    407     1
    390    408     1
    390    401     1
    390    402     1
    391    395     1
    391    396     1
    391    398     1
    391    399     1
    391    416     1
    391    417     1
    392    394     1
    392    397     1
    392    419     1
    392    415     1
    392    404     1
    392    405     1
    393    394     1
    393    397     1
    393    419     1
    393    415     1
    393    404     1
    393    405     1
    394    398     1
    394    399     1
    394    413     1
    394    414     1
    395    397     1
    395    419     1
    395    412     1
    395    407     1
    395    408     1
    396    397     1
    396    419     1
    396    412     1
    396    407     1
    396    408     1
    397    410     1
    397    411     1
    398    419     1
    398    409     1
    398    401     1
    398    402     1
    399    419     1
    399    409     1
    399    401     1
    399    402     1
    400    419     1
    401    418     1
    401    410     1
    401    411     1
    402    418     1
    402    410     1
    402    411     1
    403    419     1
    404    898     1
    404    416     1
    404    417     1
    405    898     1
    405    416     1
    405    417     1
    406    419     1
    407    868     1
    407    413     1
    407    414     1
    408    868     1
    408    413     1
    408    414     1
    412    860     1
    412    861     1
    413    859     1
    414    859     1
    415    890     1
    415    891     1
    416    889     1
    417    889     1
    420    434     1
    420    435     1
    420    437     1
    420    438     1
    420    431     1
    420    432     1
    421    425     1
    421    426     1
    421    428     1
    421    429     1
    421    446     1
    421    447     1
    422    424     1
    422    427     1
    422    449     1
    422    445     1
    422    434     1
    422    435     1
    423    424     1
    423    427     1
    423    449     1
    423    445     1
    423    434     1
    423    435     1
    424    428     1
    424    429     1
    424    443     1
    424    444     1
    425    427     1
    425    449     1
    425    442     1
    425    437     1
    425    438     1
    426    427     1
    426    449     1
    426    442     1
    426    437     1
    426    438     1
    427    440     1
    427    441     1
    428    449     1
    428    439     1
    428    431     1
    428    432     1
    429    449     1
    429    439     1
    429    431     1
    429    432     1
    430    449     1
    431    448     1
    431    440     1
    431    441     1
    432    448     1
    432    440     1
    432    441     1
    433    449     1
    434    958     1
    434    446     1
    434    447     1
    435    958     1
    435    446     1
    435    447     1
    436    449     1
    437    928     1
    437    443     1
    437    444     1
    438    928     1
    438    443     1
    438    444     1
    442    920     1
    442    921     1
    443    919     1
    444    919     1
    445    950     1
    445    951     1
    446    949     1
    447    949     1
    450    464     1
    450    465     1
    450    467     1
    450    468     1
    450    461     1
    450    462     1
    451    455     1
    451    456     1
    451    458     1
    451    459     1
    451    476     1
    451    477     1
    452    454     1
    452    457     1
    452    479     1
    452    475     1
    452    464     1
    452    465     1
    453    454     1
    453    457     1
    453    479     1
    453    475     1
    453    464     1
    453    465     1
    454    458     1
    454    459     1
    454    473     1
    454    474     1
    455    457     1
    455    479     1
    455    472     1
    455    467     1
    455    468     1
    456    457     1
    456    479     1
    456    472     1
    456    467     1
    456    468     1
    457    470     1
    457    471     1
    458    479     1
    458    469     1
    458    461     1
    458    462     1
    459    479     1
    459    469     1
    459    461     1
    459    462     1
    460    479     1
    461    478     1
    461    470     1
    461    471     1
    462    478     1
    462    470     1
    462    471     1
    463    479     1
    464   1018     1
    464    476     1
    464    477     1
    465   1018     1
    465    476     1
    465    477     1
    466    479     1
    467    988     1
    467    473     1
    467    474     1
    468    988     1
    468    473     1
    468    474     1
    472    980     1
    472    981     1
    473    979     1
    474    979     1
    475   1010     1
    475   1011     1
    476   1009     1
    477   1009     1
    480    494     1
    480    495     1
    480    497     1
    480    498     1
    480    491     1
    480    492     1
    481    485     1
    481    486     1
    481    488     1
    481    489     1
    481    506     1
    481    507     1
    482    484     1
    482    487     1
    482    509     1
    482    505     1
    482    494     1
    482    495     1
    483    484     1
    483    487     1
    483    509     1
    483    505     1
    483    494     1
    483    495     1
    484    488     1
    484    489     1
    484    503     1
    484    504     1
    485    487     1
    485    509     1
    485    502     1
    485    497     1
    485    498     1
    486    487     1
    486    509     1
    486    502     1
    486    497     1
    486    498     1
    487    500     1
    487    501     1
    488    509     1
    488    499     1
    488    491     1
    488    492     1
    489    509     1
    489    499     1
    489    491     1
    489    492     1
    490    509     1
    491    508     1
    491    500     1
    491    501     1
    492    508     1
    492    500     1
    492    501     1
    493    509     1
    494   1078     1
    494    506     1
    494    507     1
    495   1078     1
    495    506     1
    495    507     1
    496    509     1
    497   1048     1
    497    503     1
    497    504     1
    498   1048     1
    498    503     1
    498    504     1
    502   1040     1
    502   1041     1
    503   1039     1
    504   1039     1
    505   1070     1
    505   1071     1
    506   1069     1
    507   1069     1
    510    524     1
    510    525     1
    510    527     1
    510    528     1
    510    521     1
    510    522     1
    511    515     1
    511    516     1
    511    518     1
    511    519     1
    511    536     1
    511    537     1
    512    514     1
    512    517     1
    512    539     1
    512    535     1
    512    524     1
    512    525     1
    513    514     1
    513    517     1
    513    539     1
    513    535     1
    513    524     1
    513    525     1
    514    518     1
    514    519     1
    514    533     1
    514    534     1
    515    517     1
    515    539     1
    515    532     1
    515    527     1
    515    528     1
    516    517     1
    516    539     1
    516    532     1
    516    527     1
    516    528     1
    517    530     1
    517    531     1
    518    539     1
    518    529     1
    518    521     1
    518    522     1
    519    539     1
    519    529     1
    519    521     1
    519    522     1
    520    539     1
    521    538     1
    521    530     1
    521    531     1
    522    538     1
    522    530     1
    522    531     1
    523    539     1
    524   1138     1
    524    536     1
    524    537     1
    525   1138     1
    525    536     1
    525    537     1
    526    539     1
    527   1108     1
    527    533     1
    527    534     1
    528   1108     1
    528    533     1
    528    534     1
    532   1100     1
    532   1101     1
    533   1099     1
    534   1099     1
    535   1130     1
    535   1131     1
    536   1129     1
    537   1129     1
    540    554     1
    540    555     1
    540    557     1
    540    558     1
    540    551     1
    540    552     1
    541    545     1
    541    546     1
    541    548     1
    541    549     1
    541    566     1
    541    567     1
    542    544     1
    542    547     1
    542    569     1
    542    565     1
    542    554     1
    542    555     1
    543    544     1
    543    547     1
    543    569     1
    543    565     1
    543    554     1
    543    555     1
    544    548     1
    544    549     1
    544    563     1
    544    564     1
    545    547     1
    545    569     1
    545    562     1
    545    557     1
    545    558     1
    546    547     1
    546    569     1
    546    562     1
    546    557     1
    546    558     1
    547    560     1
    547    561     1
    548    569     1
    548    559     1
    548    551     1
    548    552     1
    549    569     1
    549    559     1
    549    551     1
    549    552     1
    550    569     1
    551    568     1
    551    560     1
    551    561     1
    552    568     1
    552    560     1
    552    561     1
    553    569     1
    554   1198     1
    554    566     1
    554    567     1
    555   1198     1
    555    566     1
    555    567     1
    556    569     1
    557   1168     1
    557    563     1
    557    564     1
    558   1168     1
    558    563     1
    558    564     1
    562   1160     1
    562   1161     1
    563   1159     1
    564   1159     1
    565   1190     1
    565   1191     1
    566   1189     1
    567   1189     1
    570    584     1
    570    585     1
    570    587     1
    570    588     1
    570    581     1
    570    582     1
    571    575     1
    571    576     1
    571    578     1
    571    579     1
    571    596     1
    571    597     1
    572    574     1
    572    577     1
    572    599     1
    572    595     1
    572    584     1
    572    585     1
    573    574     1
    573    577     1
    573    599     1
    573    595     1
    573    584     1
    573    585     1
    574    578     1
    574    579     1
    574    593     1
    574    594     1
    575    577     1
    575    599     1
    575    592     1
    575    587     1
    575    588     1
    576    577     1
    576    599     1
    576    592     1
    576    587     1
    576    588     1
    577    590     1
    577    591     1
    578    599     1
    578    589     1
    578    581     1
    578    582     1
    579    599     1
    579    589     1
    579    581     1
    579    582     1
    580    599     1
    581    598     1
    581    590     1
    581    591     1
    582    598     1
    582    590     1
    582    591     1
    583    599     1
    584   1258     1
    584    596     1
    584    597     1
    585   1258     1
    585    596     1
    585    597     1
    586    599     1
    587   1228     1
    587    593     1
    587    594     1
    588   1228     1
    588    593     1
    588    594     1
    592   1220     1
    592   1221     1
    593   1219     1
    594   1219     1
    595   1250     1
    595   1251     1
    596   1249     1
    597   1249     1
    600    614     1
    600    615     1
    600    617     1
    600    618     1
    600    611     1
    600    612     1
    601    605     1
    601    606     1
    601    608     1
    601    609     1
    601    626     1
    601    627     1
    602    604     1
    602    607     1
    602    629     1
    602    625     1
    602    614     1
    602    615     1
    603    604     1
    603    607     1
    603    629     1
    603    625     1
    603    614     1
    603    615     1
    604    608     1
    604    609     1
    604    623     1
    604    624     1
    605    607     1
    605    629     1
    605    622     1
    605    617     1
    605    618     1
    606    607     1
    606    629     1
    606    622     1
    606    617     1
    606    618     1
    607    620     1
    607    621     1
    608    629     1
    608    619     1
    608    611     1
    608    612     1
    609    629     1
    609    619     1
    609    611     1
    609    612     1
    610    629     1
    611    628     1
    611    620     1
    611    621     1
    612    628     1
    612    620     1
    612    621     1
    613    629     1
    614   1318     1
    614    626     1
    614    627     1
    615   1318     1
    615    626     1
    615    627     1
    616    629     1
    617   1288     1
    617    623     1
    617    624     1
    618   1288     1
    618    623     1
    618    624     1
    622   1280     1
    622   1281     1
    623   1279     1
    624   1279     1
    625   1310     1
    625   1311     1
    626   1309     1
    627   1309     1
    630    644     1
    630    645     1
    630    647     1
    630    648     1
    630    641     1
    630    642     1
    631    635     1
    631    636     1
    631    638     1
    631    639     1
    631    656     1
    631    657     1
    632    634     1
    632    637     1
    632    659     1
    632    655     1
    632    644     1
    632    645     1
    633    634     1
    633    637     1
    633    659     1
    633    655     1
    633    644     1
    633    645     1
    634    638     1
    634    639     1
    634    653     1
    634    654     1
    635    637     1
    635    659     1
    635    652     1
    635    647     1
    635    648     1
    636    637     1
    636    659     1
    636    652     1
    636    647     1
    636    648     1
    637    650     1
    637    651     1
    638    659     1
    638    649     1
    638    641     1
    638    642     1
    639    659     1
    639    649     1
    639    641     1
    639    642     1
    640    659     1
    641    658     1
    641    650     1
    641    651     1
    642    658     1
    642    650     1
    642    651     1
    643    659     1
    644   1378     1
    644    656     1
    644    657     1
    645   1378     1
    645    656     1
    645    657     1
    646    659     1
    647   1348     1
    647    653     1
    647    654     1
    648   1348     1
    648    653     1
    648    654     1
    652   1340     1
    652   1341     1
    653   1339     1
    654   1339     1
    655   1370     1
    655   1371     1
    656   1369     1
    657   1369     1
    660    674     1
    660    675     1
    660    677     1
    660    678     1
    660    671     1
    660    672     1
    661    665     1
    661    666     1
    661    668     1
    661    669     1
    661    686     1
    661    687     1
    662    664     1
    662    667     1
    662    689     1
    662    685     1
    662    674     1
    662    675     1
    663    664     1
    663    667     1
    663    689     1
    663    685     1
    663    674     1
    663    675     1
    664    668     1
    664    669     1
    664    683     1
    664    684     1
    665    667     1
    665    689     1
    665    682     1
    665    677     1
    665    678     1
    666    667     1
    666    689     1
    666    682     1
    666    677     1
    666    678     1
    667    680     1
    667    681     1
    668    689     1
    668    679     1
    668    671     1
    668    672     1
    669    689     1
    669    679     1
    669    671     1
    669    672     1
    670    689     1
    671    688     1
    671    680     1
    671    681     1
    672    688     1
    672    680     1
    672    681     1
    673    689     1
    674   1438     1
    674    686     1
    674    687     1
    675   1438     1
    675    686     1
    675    687     1
    676    689     1
    677   1408     1
    677    683     1
    677    684     1
    678   1408     1
    678    683     1
    678    684     1
    682   1400     1
    682   1401     1
    683   1399     1
    684   1399     1
    685   1430     1
    685   1431     1
    686   1429     1
    687   1429     1
    690    704     1
    690    705     1
    690    707     1
    690    708     1
    690    701     1
    690    702     1
    691    695     1
    691    696     1
    691    698     1
    691    699     1
    691    716     1
    691    717     1
    692    694     1
    692    697     1
    692    719     1
    692    715     1
    692    704     1
    692    705     1
    693    694     1
    693    697     1
    693    719     1
    693    715     1
    693    704     1
    693    705     1
    694    698     1
    694    699     1
    694    713     1
    694    714     1
    695    697     1
    695    719     1
    695    712     1
    695    707     1
    695    708     1
    696    697     1
    696    719     1
    696    712     1
    696    707     1
    696    708     1
    697    710     1
    697    711     1
    698    719     1
    698    709     1
    698    701     1
    698    702     1
    699    719     1
    699    709     1
    699    701     1
    699    702     1
    700    719     1
    701    718     1
    701    710     1
    701    711     1
    702    718     1
    702    710     1
    702    711     1
    703    719     1
    704   1498     1
    704    716     1
    704    717     1
    705   1498     1
    705    716     1
    705    717     1
    706    719     1
    707   1468     1
    707    713     1
    707    714     1
    708   1468     1
    708    713     1
    708    714     1
    712   1460     1
    712   1461     1
    713   1459     1
    714   1459     1
    715   1490     1
    715   1491     1
    716   1489     1
    717   1489     1
    720    734     1
    720    735     1
    720    737     1
    720    738     1
    720    731     1
    720    732     1
    721    725     1
    721    726     1
    721    728     1
    721    729     1
    721    746     1
    721    747     1
    722    724     1
    722    727     1
    722    749     1
    722    745     1
    722    734     1
    722    735     1
    723    724     1
    723    727     1
    723    749     1
    723    745     1
    723    734     1
    723    735     1
    724    728     1
    724    729     1
    724    743     1
    724    744     1
    725    727     1
    725    749     1
    725    742     1
    725    737     1
    725    738     1
    726    727     1
    726    749     1
    726    742     1
    726    737     1
    726    738     1
    727    740     1
    727    741     1
    728    749     1
    728    739     1
    728    731     1
    728    732     1
    729    749     1
    729    739     1
    729    731     1
    729    732     1
    730    749     1
    731    748     1
    731    740     1
    731    741     1
    732    748     1
    732    740     1
    732    741     1
    733    749     1
    734   1558     1
    734    746     1
    734    747     1
    735   1558     1
    735    746     1
    735    747     1
    736    749     1
    737   1528     1
    737    743     1
    737    744     1
    738   1528     1
    738    743     1
    738    744     1
    742   1520     1
    742   1521     1
    743   1519     1
    744   1519     1
    745   1550     1
    745   1551     1
    746   1549     1
    747   1549     1
    750    764     1
    750    765     1
    750    767     1
    750    768     1
    750    761     1
    750    762     1
    751    755     1
    751    756     1
    751    758     1
    751    759     1
    751    776     1
    751    777     1
    752    754     1
    752    757     1
    752    779     1
    752    775     1
    752    764     1
    752    765     1
    753    754     1
    753    757     1
    753    779     1
    753    775     1
    753    764     1
    753    765     1
    754    758     1
    754    759     1
    754    773     1
    754    774     1
    755    757     1
    755    779     1
    755    772     1
    755    767     1
    755    768     1
    756    757     1
    756    779     1
    756    772     1
    756    767     1
    756    768     1
    757    770     1
    757    771     1
    758    779     1
    758    769     1
    758    761     1
    758    762     1
    759    779     1
    759    769     1
    759    761     1
    759    762     1
    760    779     1
    761    778     1
    761    770     1
    761    771     1
    762    778     1
    762    770     1
    762    771     1
    763    779     1
    764   1618     1
    764    776     1
    764    777     1
    765   1618     1
    765    776     1
    765    777     1
    766    779     1
    767   1588     1
    767    773     1
    767    774     1
    768   1588     1
    768    773     1
    768    774     1
    772   1580     1
    772   1581     1
    773   1579     1
    774   1579     1
    775   1610     1
    775   1611     1
    776   1609     1
    777   1609     1
    780    794     1
    780    795     1
    780    797     1
    780    798     1
    780    791     1
    780    792     1
    781    785     1
    781    786     1
    781    788     1
    781    789     1
    781    806     1
    781    807     1
    782    784     1
    782    787     1
    782    809     1
    782    805     1
    782    794     1
    782    795     1
    783    784     1
    783    787     1
    783    809     1
    783    805     1
    783    794     1
    783    795     1
    784    788     1
    784    789     1
    784    803     1
    784    804     1
    785    787     1
    785    809     1
    785    802     1
    785    797     1
    785    798     1
    786    787     1
    786    809     1
    786    802     1
    786    797     1
    786    798     1
    787    800     1
    787    801     1
    788    809     1
    788    799     1
    788    791     1
    788    792     1
    789    809     1
    789    799     1
    789    791     1
    789    792     1
    790    809     1
    791    808     1
    791    800     1
    791    801     1
    792    808     1
    792    800     1
    792    801     1
    793    809     1
    794   1678     1
    794    806     1
    794    807     1
    795   1678     1
    795    806     1
    795    807     1
    796    809     1
    797   1648     1
    797    803     1
    797    804     1
    798   1648     1
    798    803     1
    798    804     1
    802   1640     1
    802   1641     1
    803   1639     1
    804   1639     1
    805   1670     1
    805   1671     1
    806   1669     1
    807   1669     1
    810    824     1
    810    825     1
    810    827     1
    810    828     1
    810    821     1
    810    822     1
    811    815     1
    811    816     1
    811    818     1
    811    819     1
    811    836     1
    811    837     1
    812    814     1
    812    817     1
    812    839     1
    812    835     1
    812    824     1
    812    825     1
    813    814     1
    813    817     1
    813    839     1
    813    835     1
    813    824     1
    813    825     1
    814    818     1
    814    819     1
    814    833     1
    814    834     1
    815    817     1
    815    839     1
    815    832     1
    815    827     1
    815    828     1
    816    817     1
    816    839     1
    816    832     1
    816    827     1
    816    828     1
    817    830     1
    817    831     1
    818    839     1
    818    829     1
    818    821     1
    818    822     1
    819    839     1
    819    829     1
    819    821     1
    819    822     1
    820    839     1
    821    838     1
    821    830     1
    821    831     1
    822    838     1
    822    830     1
    822    831     1
    823    839     1
    824   1738     1
    824    836     1
    824    837     1
    825   1738     1
    825    836     1
    825    837     1
    826    839     1
    827   1708     1
    827    833     1
    827    834     1
    828   1708     1
    828    833     1
    828    834     1
    832   1700     1
    832   1701     1
    833   1699     1
    834   1699     1
    835   1730     1
    835   1731     1
    836   1729     1
    837   1729     1
    840    854     1
    840    855     1
    840    857     1
    840    858     1
    840    851     1
    840    852     1
    841    845     1
    841    846     1
    841    848     1
    841    849     1
    841    866     1
    841    867     1
    842    844     1
    842    847     1
    842    869     1
    842    865     1
    842    854     1
    842    855     1
    843    844     1
    843    847     1
    843    869     1
    843    865     1
    843    854     1
    843    855     1
    844    848     1
    844    849     1
    844    863     1
    844    864     1
    845    847     1
    845    869     1
    845    862     1
    845    857     1
    845    858     1
    846    847     1
    846    869     1
    846    862     1
    846    857     1
    846    858     1
    847    860     1
    847    861     1
    848    869     1
    848    859     1
    848    851     1
    848    852     1
    849    869     1
    849    859     1
    849    851     1
    849    852     1
    850    869     1
    851    868     1
    851    860     1
    851    861     1
    852    868     1
    852    860     1
    852    861     1
    853    869     1
    854   1798     1
    854    866     1
    854    867     1
    855   1798     1
    855    866     1
    855    867     1
    856    869     1
    857   1768     1
    857    863     1
    857    864     1
    858   1768     1
    858    863     1
    858    864     1
    862   1760     1
    862   1761     1
    863   1759     1
    864   1759     1
    865   1790     1
    865   1791     1
    866   1789     1
    867   1789     1
    870    884     1
    870    885     1
    870    887     1
    870    888     1
    870    881     1
    870    882     1
    871    875     1
    871    876     1
    871    878     1
    871    879     1
    871    896     1
    871    897     1
    872    874     1
    872    877     1
    872    899     1
    872    895     1
    872    884     1
    872    885     1
    873    874     1
    873    877     1
    873    899     1
    873    895     1
    873    884     1
    873    885     1
    874    878     1
    874    879     1
    874    893     1
    874    894     1
    875    877     1
    875    899     1
    875    892     1
    875    887     1
    875    888     1
    876    877     1
    876    899     1
    876    892     1
    876    887     1
    876    888     1
    877    890     1
    877    891     1
    878    899     1
    878    889     1
    878    881     1
    878    882     1
    879    899     1
    879    889     1
    879    881     1
    879    882     1
    880    899     1
    881    898     1
    881    890     1
    881    891     1
    882    898     1
    882    890     1
    882    891     1
    883    899     1
    884   1858     1
    884    896     1
    884    897     1
    885   1858     1
    885    896     1
    885    897     1
    886    899     1
    887   1828     1
    887    893     1
    887    894     1
    888   1828     1
    888    893     1
    888    894     1
    892   1820     1
    892   1821     1
    893   1819     1
    894   1819     1
    895   1850     1
    895   1851     1
    896   1849     1
    897   1849     1
    900    914     1
    900    915     1
    900    917     1
    900    918     1
    900    911     1
    900    912     1
    901    905     1
    901    906     1
    901    908     1
    901    909     1
    901    926     1
    901    927     1
    902    904     1
    902    907     1
    902    929     1
    902    925     1
    902    914     1
    902    915     1
    903    904     1
    903    907     1
    903    929     1
    903    925     1
    903    914     1
    903    915     1
    904    908     1
    904    909     1
    904    923     1
    904    924     1
    905    907     1
    905    929     1
    905    922     1
    905    917     1
    905    918     1
    906    907     1
    906    929     1
    906    922     1
    906    917     1
    906    918     1
    907    920     1
    907    921     1
    908    929     1
    908    919     1
    908    911     1
    908    912     1
    909    929     1
    909    919     1
    909    911     1
    909    912     1
    910    929     1
    911    928     1
    911    920     1
    911    921     1
    912    928     1
    912    920     1
    912    921     1
    913    929     1
    914   1918     1
    914    926     1
    914    927     1
    915   1918     1
    915    926     1
    915    927     1
    916    929     1
    917   1888     1
    917    923     1
    917    924     1
    918   1888     1
    918    923     1
    918    924     1
    922   1880     1
    922   1881     1
    923   1879     1
    924   1879     1
    925   1910     1
    925   1911     1
    926   1909     1
    927   1909     1
    930    944     1
    930    945     1
    930    947     1
    930    948     1
    930    941     1
    930    942     1
    931    935     1
    931    936     1
    931    938     1
    931    939     1
    931    956     1
    931    957     1
    932    934     1
    932    937     1
    932    959     1
    932    955     1
    932    944     1
    932    945     1
    933    934     1
    933    937     1
    933    959     1
    933    955     1
    933    944     1
    933    945     1
    934    938     1
    934    939     1
    934    953     1
    934    954     1
    935    937     1
    935    959     1
    935    952     1
    935    947     1
    935    948     1
    936    937     1
    936    959     1
    936    952     1
    936    947     1
    936    948     1
    937    950     1
    937    951     1
    938    959     1
    938    949     1
    938    941     1
    938    942     1
    939    959     1
    939    949     1
    939    941     1
    939    942     1
    940    959     1
    941    958     1
    941    950     1
    941    951     1
    942    958     1
    942    950     1
    942    951     1
    943    959     1
    944   1978     1
    944    956     1
    944    957     1
    945   1978     1
    945    956     1
    945    957     1
    946    959     1
    947   1948     1
    947    953     1
    947    954     1
    948   1948     1
    948    953     1
    948    954     1
    952   1940     1
    952   1941     1
    953   1939     1
    954   1939     1
    955   1970     1
    955   1971     1
    956   1969     1
    957   1969     1
    960    974     1
    960    975     1
    960    977     1
    960    978     1
    960    971     1
    960    972     1
    961    965     1
    961    966     1
    961    968     1
    961    969     1
    961    986     1
    961    987     1
    962    964     1
    962    967     1
    962    989     1
    962    985     1
    962    974     1
    962    975     1
    963    964     1
    963    967     1
    963    989     1
    963    985     1
    963    974     1
    963    975     1
    964    968     1
    964    969     1
    964    983     1
    964    984     1
    965    967     1
    965    989     1
    965    982     1
    965    977     1
    965    978     1
    966    967     1
    966    989     1
    966    982     1
    966    977     1
    966    978     1
    967    980     1
    967    981     1
    968    989     1
    968    979     1
    968    971     1
    968    972     1
    969    989     1
    969    979     1
    969    971     1
    969    972     1
    970    989     1
    971    988     1
    971    980     1
    971    981     1
    972    988     1
    972    980     1
    972    981     1
    973    989     1
    974   2038     1
    974    986     1
    974    987     1
    975   2038     1
    975    986     1
    975    987     1
    976    989     1
    977   2008     1
    977    983     1
    977    984     1
    978   2008     1
    978    983     1
    978    984     1
    982   2000     1
    982   2001     1
    983   1999     1
    984   1999     1
    985   2030     1
    985   2031     1
    986   2029     1
    987   2029     1
    990   1004     1
    990   1005     1
    990   1007     1
    990   1008     1
    990   1001     1
    990   1002     1
    991    995     1
    991    996     1
    991    998     1
    991    999     1
    991   1016     1
    991   1017     1
    992    994     1
    992    997     1
    992   1019     1
    992   1015     1
    992   1004     1
    992   1005     1
    993    994     1
    993    997     1
    993   1019     1
    993   1015     1
    993   1004     1
    993   1005     1
    994    998     1
    994    999     1
    994   1013     1
    994   1014     1
    995    997     1
    995   1019     1
    995   1012     1
    995   1007     1
    995   1008     1
    996    997     1
    996   1019     1
    996   1012     1
    996   1007     1
    996   1008     1
    997   1010     1
    997   1011     1
    998   1019     1
    998   1009     1
    998   1001     1
    998   1002     1
    999   1019     1
    999   1009     1
    999   1001     1
    999   1002     1
   1000   1019     1
   1001   1018     1
   1001   1010     1
   1001   1011     1
   1002   1018     1
   1002   1010     1
   1002   1011     1
   1003   1019     1
   1004   2098     1
   1004   1016     1
   1004   1017     1
   1005   2098     1
   1005   1016     1
   1005   1017     1
   1006   1019     1
   1007   2068     1
   1007   1013     1
   1007   1014     1
   1008   2068     1
   1008   1013     1
   1008   1014     1
   1012   2060     1
   1012   2061     1
   1013   2059     1
   1014   2059     1
   1015   2090     1
   1015   2091     1
   1016   2089     1
   1017   2089     1
   1020   1034     1
   1020   1035     1
   1020   1037     1
   1020   1038     1
   1020   1031     1
   1020   1032     1
   1021   1025     1
   1021   1026     1
   1021   1028     1
   1021   1029     1
   1021   1046     1
   1021   1047     1
   1022   1024     1
   1022   1027     1
   1022   1049     1
   1022   1045     1
   1022   1034     1
   1022   1035     1
   1023   1024     1
   1023   1027     1
   1023   1049     1
   1023   1045     1
   1023   1034     1
   1023   1035     1
   1024   1028     1
   1024   1029     1
   1024   1043     1
   1024   1044     1
   1025   1027     1
   1025   1049     1
   1025   1042     1
   1025   1037     1
   1025   1038     1
   1026   1027     1
   1026   1049     1
   1026   1042     1
   1026   1037     1
   1026   1038     1
   1027   1040     1
   1027   1041     1
   1028   1049     1
   1028   1039     1
   1028   1031     1
   1028   1032     1
   1029   1049     1
   1029   1039     1
   1029   1031     1
   1029   1032     1
   1030   1049     1
   1031   1048     1
   1031   1040     1
   1031   1041     1
   1032   1048     1
   1032   1040     1
   1032   1041     1
   1033   1049     1
   1034   2158     1
   1034   1046     1
   1034   1047     1
   1035   2158     1
   1035   1046     1
   1035   1047     1
   1036   1049     1
   1037   2128     1
   1037   1043     1
   1037   1044     1
   1038   2128     1
   1038   1043     1
   1038   1044     1
   1042   2120     1
   1042   2121     1
   1043   2119     1
   1044   2119     1
   1045   2150     1
   1045   2151     1
   1046   2149     1
   1047   2149     1
   1050   1064     1
   1050   1065     1
   1050   1067     1
   1050   1068     1
   1050   1061     1
   1050   1062     1
   1051   1055     1
   1051   1056     1
   1051   1058     1
   1051   1059     1
   1051   1076     1
   1051   1077     1
   1052   1054     1
   1052   1057     1
   1052   1079     1
   1052   1075     1
   1052   1064     1
   1052   1065     1
   1053   1054     1
   1053   1057     1
   1053   1079     1
   1053   1075     1
   1053   1064     1
   1053   1065     1
   1054   1058     1
   1054   1059     1
   1054   1073     1
   1054   1074     1
   1055   1057     1
   1055   1079     1
   1055   1072     1
   1055   1067     1
   1055   1068     1
   1056   1057     1
   1056   1079     1
   1056   1072     1
   1056   1067     1
   1056   1068     1
   1057   1070     1
   1057   1071     1
   1058   1079     1
   1058   1069     1
   1058   1061     1
   1058   1062     1
   1059   1079     1
   1059   1069     1
   1059   1061     1
   1059   1062     1
   1060   1079     1
   1061   1078     1
   1061   1070     1
   1061   1071     1
   1062   1078     1
   1062   1070     1
   1062   1071     1
   1063   1079     1
   1064   2218     1
   1064   1076     1
   1064   1077     1
   1065   2218     1
   1065   1076     1
   1065   1077     1
   1066   1079     1
   1067   2188     1
   1067   1073     1
   1067   1074     1
   1068   2188     1
   1068   1073     1
   1068   1074     1
   1072   2180     1
   1072   2181     1
   1073   2179     1
   1074   2179     1
   1075   2210     1
   1075   2211     1
   1076   2209     1
   1077   2209     1
   1080   1094     1
   1080   1095     1
   1080   1097     1
   1080   1098     1
   1080   1091     1
   1080   1092     1
   1081   1085     1
   1081   1086     1
   1081   1088     1
   1081   1089     1
   1081   1106     1
   1081   1107     1
   1082   1084     1
   1082   1087     1
   1082   1109     1
   1082   1105     1
   1082   1094     1
   1082   1095     1
   1083   1084     1
   1083   1087     1
   1083   1109     1
   1083   1105     1
   1083   1094     1
   1083   1095     1
   1084   1088     1
   1084   1089     1
   1084   1103     1
   1084   1104     1
   1085   1087     1
   1085   1109     1
   1085   1102     1
   1085   1097     1
   1085   1098     1
   1086   1087     1
   1086   1109     1
   1086   1102     1
   1086   1097     1
   1086   1098     1
   1087   1100     1
   1087   1101     1
   1088   1109     1
   1088   1099     1
   1088   1091     1
   1088   1092     1
   1089   1109     1
   1089   1099     1
   1089   1091     1
   1089   1092     1
   1090   1109     1
   1091   1108     1
   1091   1100     1
   1091   1101     1
   1092   1108     1
   1092   1100     1
   1092   1101     1
   1093   1109     1
   1094   2278     1
   1094   1106     1
   1094   1107     1
   1095   2278     1
   1095   1106     1
   1095   1107     1
   1096   1109     1
   1097   2248     1
   1097   1103     1
   1097   1104     1
   1098   2248     1
   1098   1103     1
   1098   1104     1
   1102   2240     1
   1102   2241     1
   1103   2239     1
   1104   2239     1
   1105   2270     1
   1105   2271     1
   1106   2269     1
   1107   2269     1
   1110   1124     1
   1110   1125     1
   1110   1127     1
   1110   1128     1
   1110   1121     1
   1110   1122     1
   1111   1115     1
   1111   1116     1
   1111   1118     1
   1111   1119     1
   1111   1136     1
   1111   1137     1
   1112   1114     1
   1112   1117     1
   1112   1139     1
   1112   1135     1
   1112   1124     1
   1112   1125     1
   1113   1114     1
   1113   1117     1
   1113   1139     1
   1113   1135     1
   1113   1124     1
   1113   1125     1
   1114   1118     1
   1114   1119     1
   1114   1133     1
   1114   1134     1
   1115   1117     1
   1115   1139     1
   1115   1132     1
   1115   1127     1
   1115   1128     1
   1116   1117     1
   1116   1139     1
   1116   1132     1
   1116   1127     1
   1116   1128     1
   1117   1130     1
   1117   1131     1
   1118   1139     1
   1118   1129     1
   1118   1121     1
   1118   1122     1
   1119   1139     1
   1119   1129     1
   1119   1121     1
   1119   1122     1
   1120   1139     1
   1121   1138     1
   1121   1130     1
   1121   1131     1
   1122   1138     1
   1122   1130     1
   1122   1131     1
   1123   1139     1
   1124   2338     1
   1124   1136     1
   1124   1137     1
   1125   2338     1
   1125   1136     1
   1125   1137     1
   1126   1139     1
   1127   2308     1
   1127   1133     1
   1127   1134     1
   1128   2308     1
   1128   1133     1
   1128   1134     1
   1132   2300     1
   1132   2301     1
   1133   2299     1
   1134   2299     1
   1135   2330     1
   1135   2331     1
   1136   2329     1
   1137   2329     1
   1140   1154     1
   1140   1155     1
   1140   1157     1
   1140   1158     1
   1140   1151     1
   1140   1152     1
   1141   1145     1
   1141   1146     1
   1141   1148     1
   1141   1149     1
   1141   1166     1
   1141   1167     1
   1142   1144     1
   1142   1147     1
   1142   1169     1
   1142   1165     1
   1142   1154     1
   1142   1155     1
   1143   1144     1
   1143   1147     1
   1143   1169     1
   1143   1165     1
   1143   1154     1
   1143   1155     1
   1144   1148     1
   1144   1149     1
   1144   1163     1
   1144   1164     1
   1145   1147     1
   1145   1169     1
   1145   1162     1
   1145   1157     1
   1145   1158     1
   1146   1147     1
   1146   1169     1
   1146   1162     1
   1146   1157     1
   1146   1158     1
   1147   1160     1
   1147   1161     1
   1148   1169     1
   1148   1159     1
   1148   1151     1
   1148   1152     1
   1149   1169     1
   1149   1159     1
   1149   1151     1
   1149   1152     1
   1150   1169     1
   1151   1168     1
   1151   1160     1
   1151   1161     1
   1152   1168     1
   1152   1160     1
   1152   1161     1
   1153   1169     1
   1154   2398     1
   1154   1166     1
   1154   1167     1
   1155   2398     1
   1155   1166     1
   1155   1167     1
   1156   1169     1
   1157   2368     1
   1157   1163     1
   1157   1164     1
   1158   2368     1
   1158   1163     1
   1158   1164     1
   1162   2360     1
   1162   2361     1
   1163   2359     1
   1164   2359     1
   1165   2390     1
   1165   2391     1
   1166   2389     1
   1167   2389     1
   1170   1184     1
   1170   1185     1
   1170   1187     1
   1170   1188     1
   1170   1181     1
   1170   1182     1
   1171   1175     1
   1171   1176     1
   1171   1178     1
   1171   1179     1
   1171   1196     1
   1171   1197     1
   1172   1174     1
   1172   1177     1
   1172   1199     1
   1172   1195     1
   1172   1184     1
   1172   1185     1
   1173   1174     1
   1173   1177     1
   1173   1199     1
   1173   1195     1
   1173   1184     1
   1173   1185     1
   1174   1178     1
   1174   1179     1
   1174   1193     1
   1174   1194     1
   1175   1177     1
   1175   1199     1
   1175   1192     1
   1175   1187     1
   1175   1188     1
   1176   1177     1
   1176   1199     1
   1176   1192     1
   1176   1187     1
   1176   1188     1
   1177   1190     1
   1177   1191     1
   1178   1199     1
   1178   1189     1
   1178   1181     1
   1178   1182     1
   1179   1199     1
   1179   1189     1
   1179   1181     1
   1179   1182     1
   1180   1199     1
   1181   1198     1
   1181   1190     1
   1181   1191     1
   1182   1198     1
   1182   1190     1
   1182   1191     1
   1183   1199     1
   1184   2458     1
   1184   1196     1
   1184   1197     1
   1185   2458     1
   1185   1196     1
   1185   1197     1
   1186   1199     1
   1187   2428     1
   1187   1193     1
   1187   1194     1
   1188   2428     1
   1188   1193     1
   1188   1194     1
   1192   2420     1
   1192   2421     1
   1193   2419     1
   1194   2419     1
   1195   2450     1
   1195   2451     1
   1196   2449     1
   1197   2449     1
   1200   1214     1
   1200   1215     1
   1200   1217     1
   1200   1218     1
   1200   1211     1
   1200   1212     1
   1201   1205     1
   1201   1206     1
   1201   1208     1
   1201   1209     1
   1201   1226     1
   1201   1227     1
   1202   1204     1
   1202   1207     1
   1202   1229     1
   1202   1225     1
   1202   1214     1
   1202   1215     1
   1203   1204     1
   1203   1207     1
   1203   1229     1
   1203   1225     1
   1203   1214     1
   1203   1215     1
   1204   1208     1
   1204   1209     1
   1204   1223     1
   1204   1224     1
   1205   1207     1
   1205   1229     1
   1205   1222     1
   1205   1217     1
   1205   1218     1
   1206   1207     1
   1206   1229     1
   1206   1222     1
   1206   1217     1
   1206   1218     1
   1207   1220     1
   1207   1221     1
   1208   1229     1
   1208   1219     1
   1208   1211     1
   1208   1212     1
   1209   1229     1
   1209   1219     1
   1209   1211     1
   1209   1212     1
   1210   1229     1
   1211   1228     1
   1211   1220     1
   1211   1221     1
   1212   1228     1
   1212   1220     1
   1212   1221     1
   1213   1229     1
   1214   2518     1
   1214   1226     1
   1214   1227     1
   1215   2518     1
   1215   1226     1
   1215   1227     1
   1216   1229     1
   1217   2488     1
   1217   1223     1
   1217   1224     1
   1218   2488     1
   1218   1223     1
   1218   1224     1
   1222   2480     1
   1222   2481     1
   1223   2479     1
   1224   2479     1
   1225   2510     1
   1225   2511     1
   1226   2509     1
   1227   2509     1
   1230   1244     1
   1230   1245     1
   1230   1247     1
   1230   1248     1
   1230   1241     1
   1230   1242     1
   1231   1235     1
   1231   1236     1
   1231   1238     1
   1231   1239     1
   1231   1256     1
   1231   1257     1
   1232   1234     1
   1232   1237     1
   1232   1259     1
   1232   1255     1
   1232   1244     1
   1232   1245     1
   1233   1234     1
   1233   1237     1
   1233   1259     1
   1233   1255     1
   1233   1244     1
   1233   1245     1
   1234   1238     1
   1234   1239     1
   1234   1253     1
   1234   1254     1
   1235   1237     1
   1235   1259     1
   1235   1252     1
   1235   1247     1
   1235   1248     1
   1236   1237     1
   1236   1259     1
   1236   1252     1
   1236   1247     1
   1236   1248     1
   1237   1250     1
   1237   1251     1
   1238   1259     1
   1238   1249     1
   1238   1241     1
   1238   1242     1
   1239   1259     1
   1239   1249     1
   1239   1241     1
   1239   1242     1
   1240   1259     1
   1241   1258     1
   1241   1250     1
   1241   1251     1
   1242   1258     1
   1242   1250     1
   1242   1251     1
   1243   1259     1
   1244   2578     1
   1244   1256     1
   1244   1257     1
   1245   2578     1
   1245   1256     1
   1245   1257     1
   1246   1259     1
   1247   2548     1
   1247   1253     1
   1247   1254     1
   1248   2548     1
   1248   1253     1
   1248   1254     1
   1252   2540     1
   1252   2541     1
   1253   2539     1
   1254   2539     1
   1255   2570     1
   1255   2571     1
   1256   2569     1
   1257   2569     1
   1260   1274     1
   1260   1275     1
   1260   1277     1
   1260   1278     1
   1260   1271     1
   1260   1272     1
   1261   1265     1
   1261   1266     1
   1261   1268     1
   1261   1269     1
   1261   1286     1
   1261   1287     1
   1262   1264     1
   1262   1267     1
   1262   1289     1
   1262   1285     1
   1262   1274     1
   1262   1275     1
   1263   1264     1
   1263   1267     1
   1263   1289     1
   1263   1285     1
   1263   1274     1
   1263   1275     1
   1264   1268     1
   1264   1269     1
   1264   1283     1
   1264   1284     1
   1265   1267     1
   1265   1289     1
   1265   1282     1
   1265   1277     1
   1265   1278     1
   1266   1267     1
   1266   1289     1
   1266   1282     1
   1266   1277     1
   1266   1278     1
   1267   1280     1
   1267   1281     1
   1268   1289     1
   1268   1279     1
   1268   1271     1
   1268   1272     1
   1269   1289     1
   1269   1279     1
   1269   1271     1
   1269   1272     1
   1270   1289     1
   1271   1288     1
   1271   1280     1
   1271   1281     1
   1272   1288     1
   1272   1280     1
   1272   1281     1
   1273   1289     1
   1274   2638     1
   1274   1286     1
   1274   1287     1
   1275   2638     1
   1275   1286     1
   1275   1287     1
   1276   1289     1
   1277   2608     1
   1277   1283     1
   1277   1284     1
   1278   2608     1
   1278   1283     1
   1278   1284     1
   1282   2600     1
   1282   2601     1
   1283   2599     1
   1284   2599     1
   1285   2630     1
   1285   2631     1
   1286   2629     1
   1287   2629     1
   1290   1304     1
   1290   1305     1
   1290   1307     1
   1290   1308     1
   1290   1301     1
   1290   1302     1
   1291   1295     1
   1291   1296     1
   1291   1298     1
   1291   1299     1
   1291   1316     1
   1291   1317     1
   1292   1294     1
   1292   1297     1
   1292   1319     1
   1292   1315     1
   1292   1304     1
   1292   1305     1
   1293   1294     1
   1293   1297     1
   1293   1319     1
   1293   1315     1
   1293   1304     1
   1293   1305     1
   1294   1298     1
   1294   1299     1
   1294   1313     1
   1294   1314     1
   1295   1297     1
   1295   1319     1
   1295   1312     1
   1295   1307     1
   1295   1308     1
   1296   1297     1
   1296   1319     1
   1296   1312     1
   1296   1307     1
   1296   1308     1
   1297   1310     1
   1297   1311     1
   1298   1319     1
   1298   1309     1
   1298   1301     1
   1298   1302     1
   1299   1319     1
   1299   1309     1
   1299   1301     1
   1299   1302     1
   1300   1319     1
   1301   1318     1
   1301   1310     1
   1301   1311     1
   1302   1318     1
   1302   1310     1
   1302   1311     1
   1303   1319     1
   1304   2698     1
   1304   1316     1
   1304   1317     1
   1305   2698     1
   1305   1316     1
   1305   1317     1
   1306   1319     1
   1307   2668     1
   1307   1313     1
   1307   1314     1
   1308   2668     1
   1308   1313     1
   1308   1314     1
   1312   2660     1
   1312   2661     1
   1313   2659     1
   1314   2659     1
   1315   2690     1
   1315   2691     1
   1316   2689     1
   1317   2689     1
   1320   1334     1
   1320   1335     1
   1320   1337     1
   1320   1338     1
   1320   1331     1
   1320   1332     1
   1321   1325     1
   1321   1326     1
   1321   1328     1
   1321   1329     1
   1321   1346     1
   1321   1347     1
   1322   1324     1
   1322   1327     1
   1322   1349     1
   1322   1345     1
   1322   1334     1
   1322   1335     1
   1323   1324     1
   1323   1327     1
   1323   1349     1
   1323   1345     1
   1323   1334     1
   1323   1335     1
   1324   1328     1
   1324   1329     1
   1324   1343     1
   1324   1344     1
   1325   1327     1
   1325   1349     1
   1325   1342     1
   1325   1337     1
   1325   1338     1
   1326   1327     1
   1326   1349     1
   1326   1342     1
   1326   1337     1
   1326   1338     1
   1327   1340     1
   1327   1341     1
   1328   1349     1
   1328   1339     1
   1328   1331     1
   1328   1332     1
   1329   1349     1
   1329   1339     1
   1329   1331     1
   1329   1332     1
   1330   1349     1
   1331   1348     1
   1331   1340     1
   1331   1341     1
   1332   1348     1
   1332   1340     1
   1332   1341     1
   1333   1349     1
   1334   2758     1
   1334   1346     1
   1334   1347     1
   1335   2758     1
   1335   1346     1
   1335   1347     1
   1336   1349     1
   1337   2728     1
   1337   1343     1
   1337   1344     1
   1338   2728     1
   1338   1343     1
   1338   1344     1
   1342   2720     1
   1342   2721     1
   1343   2719     1
   1344   2719     1
   1345   2750     1
   1345   2751     1
   1346   2749     1
   1347   2749     1
   1350   1364     1
   1350   1365     1
   1350   1367     1
   1350   1368     1
   1350   1361     1
   1350   1362     1
   1351   1355     1
   1351   1356     1
   1351   1358     1
   1351   1359     1
   1351   1376     1
   1351   1377     1
   1352   1354     1
   1352   1357     1
   1352   1379     1
   1352   1375     1
   1352   1364     1
   1352   1365     1
   1353   1354     1
   1353   1357     1
   1353   1379     1
   1353   1375     1
   1353   1364     1
   1353   1365     1
   1354   1358     1
   1354   1359     1
   1354   1373     1
   1354   1374     1
   1355   1357     1
   1355   1379     1
   1355   1372     1
   1355   1367     1
   1355   1368     1
   1356   1357     1
   1356   1379     1
   1356   1372     1
   1356   1367     1
   1356   1368     1
   1357   1370     1
   1357   1371     1
   1358   1379     1
   1358   1369     1
   1358   1361     1
   1358   1362     1
   1359   1379     1
   1359   1369     1
   1359   1361     1
   1359   1362     1
   1360   1379     1
   1361   1378     1
   1361   1370     1
   1361   1371     1
   1362   1378     1
   1362   1370     1
   1362   1371     1
   1363   1379     1
   1364   2818     1
   1364   1376     1
   1364   1377     1
   1365   2818     1
   1365   1376     1
   1365   1377     1
   1366   1379     1
   1367   2788     1
   1367   1373     1
   1367   1374     1
   1368   2788     1
   1368   1373     1
   1368   1374     1
   1372   2780     1
   1372   2781     1
   1373   2779     1
   1374   2779     1
   1375   2810     1
   1375   2811     1
   1376   2809     1
   1377   2809     1
   1380   1394     1
   1380   1395     1
   1380   1397     1
   1380   1398     1
   1380   1391     1
   1380   1392     1
   1381   1385     1
   1381   1386     1
   1381   1388     1
   1381   1389     1
   1381   1406     1
   1381   1407     1
   1382   1384     1
   1382   1387     1
   1382   1409     1
   1382   1405     1
   1382   1394     1
   1382   1395     1
   1383   1384     1
   1383   1387     1
   1383   1409     1
   1383   1405     1
   1383   1394     1
   1383   1395     1
   1384   1388     1
   1384   1389     1
   1384   1403     1
   1384   1404     1
   1385   1387     1
   1385   1409     1
   1385   1402     1
   1385   1397     1
   1385   1398     1
   1386   1387     1
   1386   1409     1
   1386   1402     1
   1386   1397     1
   1386   1398     1
   1387   1400     1
   1387   1401     1
   1388   1409     1
   1388   1399     1
   1388   1391     1
   1388   1392     1
   1389   1409     1
   1389   1399     1
   1389   1391     1
   1389   1392     1
   1390   1409     1
   1391   1408     1
   1391   1400     1
   1391   1401     1
   1392   1408     1
   1392   1400     1
   1392   1401     1
   1393   1409     1
   1394   2846     1
   1394   1406     1
   1394   1407     1
   1395   2846     1
   1395   1406     1
   1395   1407     1
   1396   1409     1
   1397   2832     1
   1397   1403     1
   1397   1404     1
   1398   2832     1
   1398   1403     1
   1398   1404     1
   1402   2827     1
   1402   2828     1
   1403   2826     1
   1404   2826     1
   1405   2841     1
   1405   2842     1
   1406   2840     1
   1407   2840     1
   1410   1424     1
   1410   1425     1
   1410   1427     1
   1410   1428     1
   1410   1421     1
   1410   1422     1
   1411   1415     1
   1411   1416     1
   1411   1418     1
   1411   1419     1
   1411   1436     1
   1411   1437     1
   1412   1414     1
   1412   1417     1
   1412   1439     1
   1412   1435     1
   1412   1424     1
   1412   1425     1
   1413   1414     1
   1413   1417     1
   1413   1439     1
   1413   1435     1
   1413   1424     1
   1413   1425     1
   1414   1418     1
   1414   1419     1
   1414   1433     1
   1414   1434     1
   1415   1417     1
   1415   1439     1
   1415   1432     1
   1415   1427     1
   1415   1428     1
   1416   1417     1
   1416   1439     1
   1416   1432     1
   1416   1427     1
   1416   1428     1
   1417   1430     1
   1417   1431     1
   1418   1439     1
   1418   1429     1
   1418   1421     1
   1418   1422     1
   1419   1439     1
   1419   1429     1
   1419   1421     1
   1419   1422     1
   1420   1439     1
   1421   1438     1
   1421   1430     1
   1421   1431     1
   1422   1438     1
   1422   1430     1
   1422   1431     1
   1423   1439     1
   1424   2874     1
   1424   1436     1
   1424   1437     1
   1425   2874     1
   1425   1436     1
   1425   1437     1
   1426   1439     1
   1427   2860     1
   1427   1433     1
   1427   1434     1
   1428   2860     1
   1428   1433     1
   1428   1434     1
   1432   2855     1
   1432   2856     1
   1433   2854     1
   1434   2854     1
   1435   2869     1
   1435   2870     1
   1436   2868     1
   1437   2868     1
   1440   1454     1
   1440   1455     1
   1440   1457     1
   1440   1458     1
   1440   1451     1
   1440   1452     1
   1441   1445     1
   1441   1446     1
   1441   1448     1
   1441   1449     1
   1441   1466     1
   1441   1467     1
   1442   1444     1
   1442   1447     1
   1442   1469     1
   1442   1465     1
   1442   1454     1
   1442   1455     1
   1443   1444     1
   1443   1447     1
   1443   1469     1
   1443   1465     1
   1443   1454     1
   1443   1455     1
   1444   1448     1
   1444   1449     1
   1444   1463     1
   1444   1464     1
   1445   1447     1
   1445   1469     1
   1445   1462     1
   1445   1457     1
   1445   1458     1
   1446   1447     1
   1446   1469     1
   1446   1462     1
   1446   1457     1
   1446   1458     1
   1447   1460     1
   1447   1461     1
   1448   1469     1
   1448   1459     1
   1448   1451     1
   1448   1452     1
   1449   1469     1
   1449   1459     1
   1449   1451     1
   1449   1452     1
   1450   1469     1
   1451   1468     1
   1451   1460     1
   1451   1461     1
   1452   1468     1
   1452   1460     1
   1452   1461     1
   1453   1469     1
   1454   2902     1
   1454   1466     1
   1454   1467     1
   1455   2902     1
   1455   1466     1
   1455   1467     1
   1456   1469     1
   1457   2888     1
   1457   1463     1
   1457   1464     1
   1458   2888     1
   1458   1463     1
   1458   1464     1
   1462   2883     1
   1462   2884     1
   1463   2882     1
   1464   2882     1
   1465   2897     1
   1465   2898     1
   1466   2896     1
   1467   2896     1
   1470   1484     1
   1470   1485     1
   1470   1487     1
   1470   1488     1
   1470   1481     1
   1470   1482     1
   1471   1475     1
   1471   1476     1
   1471   1478     1
   1471   1479     1
   1471   1496     1
   1471   1497     1
   1472   1474     1
   1472   1477     1
   1472   1499     1
   1472   1495     1
   1472   1484     1
   1472   1485     1
   1473   1474     1
   1473   1477     1
   1473   1499     1
   1473   1495     1
   1473   1484     1
   1473   1485     1
   1474   1478     1
   1474   1479     1
   1474   1493     1
   1474   1494     1
   1475   1477     1
   1475   1499     1
   1475   1492     1
   1475   1487     1
   1475   1488     1
   1476   1477     1
   1476   1499     1
   1476   1492     1
   1476   1487     1
   1476   1488     1
   1477   1490     1
   1477   1491     1
   1478   1499     1
   1478   1489     1
   1478   1481     1
   1478   1482     1
   1479   1499     1
   1479   1489     1
   1479   1481     1
   1479   1482     1
   1480   1499     1
   1481   1498     1
   1481   1490     1
   1481   1491     1
   1482   1498     1
   1482   1490     1
   1482   1491     1
   1483   1499     1
   1484   2930     1
   1484   1496     1
   1484   1497     1
   1485   2930     1
   1485   1496     1
   1485   1497     1
   1486   1499     1
   1487   2916     1
   1487   1493     1
   1487   1494     1
   1488   2916     1
   1488   1493     1
   1488   1494     1
   1492   2911     1
   1492   2912     1
   1493   2910     1
   1494   2910     1
   1495   2925     1
   1495   2926     1
   1496   2924     1
   1497   2924     1
   1500   1514     1
   1500   1515     1
   1500   1517     1
   1500   1518     1
   1500   1511     1
   1500   1512     1
   1501   1505     1
   1501   1506     1
   1501   1508     1
   1501   1509     1
   1501   1526     1
   1501   1527     1
   1502   1504     1
   1502   1507     1
   1502   1529     1
   1502   1525     1
   1502   1514     1
   1502   1515     1
   1503   1504     1
   1503   1507     1
   1503   1529     1
   1503   1525     1
   1503   1514     1
   1503   1515     1
   1504   1508     1
   1504   1509     1
   1504   1523     1
   1504   1524     1
   1505   1507     1
   1505   1529     1
   1505   1522     1
   1505   1517     1
   1505   1518     1
   1506   1507     1
   1506   1529     1
   1506   1522     1
   1506   1517     1
   1506   1518     1
   1507   1520     1
   1507   1521     1
   1508   1529     1
   1508   1519     1
   1508   1511     1
   1508   1512     1
   1509   1529     1
   1509   1519     1
   1509   1511     1
   1509   1512     1
   1510   1529     1
   1511   1528     1
   1511   1520     1
   1511   1521     1
   1512   1528     1
   1512   1520     1
   1512   1521     1
   1513   1529     1
   1514   2958     1
   1514   1526     1
   1514   1527     1
   1515   2958     1
   1515   1526     1
   1515   1527     1
   1516   1529     1
   1517   2944     1
   1517   1523     1
   1517   1524     1
   1518   2944     1
   1518   1523     1
   1518   1524     1
   1522   2939     1
   1522   2940     1
   1523   2938     1
   1524   2938     1
   1525   2953     1
   1525   2954     1
   1526   2952     1
   1527   2952     1
   1530   1544     1
   1530   1545     1
   1530   1547     1
   1530   1548     1
   1530   1541     1
   1530   1542     1
   1531   1535     1
   1531   1536     1
   1531   1538     1
   1531   1539     1
   1531   1556     1
   1531   1557     1
   1532   1534     1
   1532   1537     1
   1532   1559     1
   1532   1555     1
   1532   1544     1
   1532   1545     1
   1533   1534     1
   1533   1537     1
   1533   1559     1
   1533   1555     1
   1533   1544     1
   1533   1545     1
   1534   1538     1
   1534   1539     1
   1534   1553     1
   1534   1554     1
   1535   1537     1
   1535   1559     1
   1535   1552     1
   1535   1547     1
   1535   1548     1
   1536   1537     1
   1536   1559     1
   1536   1552     1
   1536   1547     1
   1536   1548     1
   1537   1550     1
   1537   1551     1
   1538   1559     1
   1538   1549     1
   1538   1541     1
   1538   1542     1
   1539   1559     1
   1539   1549     1
   1539   1541     1
   1539   1542     1
   1540   1559     1
   1541   1558     1
   1541   1550     1
   1541   1551     1
   1542   1558     1
   1542   1550     1
   1542   1551     1
   1543   1559     1
   1544   2986     1
   1544   1556     1
   1544   1557     1
   1545   2986     1
   1545   1556     1
   1545   1557     1
   1546   1559     1
   1547   2972     1
   1547   1553     1
   1547   1554     1
   1548   2972     1
   1548   1553     1
   1548   1554     1
   1552   2967     1
   1552   2968     1
   1553   2966     1
   1554   2966     1
   1555   2981     1
   1555   2982     1
   1556   2980     1
   1557   2980     1
   1560   1574     1
   1560   1575     1
   1560   1577     1
   1560   1578     1
   1560   1571     1
   1560   1572     1
   1561   1565     1
   1561   1566     1
   1561   1568     1
   1561   1569     1
   1561   1586     1
   1561   1587     1
   1562   1564     1
   1562   1567     1
   1562   1589     1
   1562   1585     1
   1562   1574     1
   1562   1575     1
   1563   1564     1
   1563   1567     1
   1563   1589     1
   1563   1585     1
   1563   1574     1
   1563   1575     1
   1564   1568     1
   1564   1569     1
   1564   1583     1
   1564   1584     1
   1565   1567     1
   1565   1589     1
   1565   1582     1
   1565   1577     1
   1565   1578     1
   1566   1567     1
   1566   1589     1
   1566   1582     1
   1566   1577     1
   1566   1578     1
   1567   1580     1
   1567   1581     1
   1568   1589     1
   1568   1579     1
   1568   1571     1
   1568   1572     1
   1569   1589     1
   1569   1579     1
   1569   1571     1
   1569   1572     1
   1570   1589     1
   1571   1588     1
   1571   1580     1
   1571   1581     1
   1572   1588     1
   1572   1580     1
   1572   1581     1
   1573   1589     1
   1574   3014     1
   1574   1586     1
   1574   1587     1
   1575   3014     1
   1575   1586     1
   1575   1587     1
   1576   1589     1
   1577   3000     1
   1577   1583     1
   1577   1584     1
   1578   3000     1
   1578   1583     1
   1578   1584     1
   1582   2995     1
   1582   2996     1
   1583   2994     1
   1584   2994     1
   1585   3009     1
   1585   3010     1
   1586   3008     1
   1587   3008     1
   1590   1604     1
   1590   1605     1
   1590   1607     1
   1590   1608     1
   1590   1601     1
   1590   1602     1
   1591   1595     1
   1591   1596     1
   1591   1598     1
   1591   1599     1
   1591   1616     1
   1591   1617     1
   1592   1594     1
   1592   1597     1
   1592   1619     1
   1592   1615     1
   1592   1604     1
   1592   1605     1
   1593   1594     1
   1593   1597     1
   1593   1619     1
   1593   1615     1
   1593   1604     1
   1593   1605     1
   1594   1598     1
   1594   1599     1
   1594   1613     1
   1594   1614     1
   1595   1597     1
   1595   1619     1
   1595   1612     1
   1595   1607     1
   1595   1608     1
   1596   1597     1
   1596   1619     1
   1596   1612     1
   1596   1607     1
   1596   1608     1
   1597   1610     1
   1597   1611     1
   1598   1619     1
   1598   1609     1
   1598   1601     1
   1598   1602     1
   1599   1619     1
   1599   1609     1
   1599   1601     1
   1599   1602     1
   1600   1619     1
   1601   1618     1
   1601   1610     1
   1601   1611     1
   1602   1618     1
   1602   1610     1
   1602   1611     1
   1603   1619     1
   1604   3042     1
   1604   1616     1
   1604   1617     1
   1605   3042     1
   1605   1616     1
   1605   1617     1
   1606   1619     1
   1607   3028     1
   1607   1613     1
   1607   1614     1
   1608   3028     1
   1608   1613     1
   1608   1614     1
   1612   3023     1
   1612   3024     1
   1613   3022     1
   1614   3022     1
   1615   3037     1
   1615   3038     1
   1616   3036     1
   1617   3036     1
   1620   1634     1
   1620   1635     1
   1620   1637     1
   1620   1638     1
   1620   1631     1
   1620   1632     1
   1621   1625     1
   1621   1626     1
   1621   1628     1
   1621   1629     1
   1621   1646     1
   1621   1647     1
   1622   1624     1
   1622   1627     1
   1622   1649     1
   1622   1645     1
   1622   1634     1
   1622   1635     1
   1623   1624     1
   1623   1627     1
   1623   1649     1
   1623   1645     1
   1623   1634     1
   1623   1635     1
   1624   1628     1
   1624   1629     1
   1624   1643     1
   1624   1644     1
   1625   1627     1
   1625   1649     1
   1625   1642     1
   1625   1637     1
   1625   1638     1
   1626   1627     1
   1626   1649     1
   1626   1642     1
   1626   1637     1
   1626   1638     1
   1627   1640     1
   1627   1641     1
   1628   1649     1
   1628   1639     1
   1628   1631     1
   1628   1632     1
   1629   1649     1
   1629   1639     1
   1629   1631     1
   1629   1632     1
   1630   1649     1
   1631   1648     1
   1631   1640     1
   1631   1641     1
   1632   1648     1
   1632   1640     1
   1632   1641     1
   1633   1649     1
   1634   3070     1
   1634   1646     1
   1634   1647     1
   1635   3070     1
   1635   1646     1
   1635   1647     1
   1636   1649     1
   1637   3056     1
   1637   1643     1
   1637   1644     1
   1638   3056     1
   1638   1643     1
   1638   1644     1
   1642   3051     1
   1642   3052     1
   1643   3050     1
   1644   3050     1
   1645   3065     1
   1645   3066     1
   1646   3064     1
   1647   3064     1
   1650   1664     1
   1650   1665     1
   1650   1667     1
   1650   1668     1
   1650   1661     1
   1650   1662     1
   1651   1655     1
   1651   1656     1
   1651   1658     1
   1651   1659     1
   1651   1676     1
   1651   1677     1
   1652   1654     1
   1652   1657     1
   1652   1679     1
   1652   1675     1
   1652   1664     1
   1652   1665     1
   1653   1654     1
   1653   1657     1
   1653   1679     1
   1653   1675     1
   1653   1664     1
   1653   1665     1
   1654   1658     1
   1654   1659     1
   1654   1673     1
   1654   1674     1
   1655   1657     1
   1655   1679     1
   1655   1672     1
   1655   1667     1
   1655   1668     1
   1656   1657     1
   1656   1679     1
   1656   1672     1
   1656   1667     1
   1656   1668     1
   1657   1670     1
   1657   1671     1
   1658   1679     1
   1658   1669     1
   1658   1661     1
   1658   1662     1
   1659   1679     1
   1659   1669     1
   1659   1661     1
   1659   1662     1
   1660   1679     1
   1661   1678     1
   1661   1670     1
   1661   1671     1
   1662   1678     1
   1662   1670     1
   1662   1671     1
   1663   1679     1
   1664   3098     1
   1664   1676     1
   1664   1677     1
   1665   3098     1
   1665   1676     1
   1665   1677     1
   1666   1679     1
   1667   3084     1
   1667   1673     1
   1667   1674     1
   1668   3084     1
   1668   1673     1
   1668   1674     1
   1672   3079     1
   1672   3080     1
   1673   3078     1
   1674   3078     1
   1675   3093     1
   1675   3094     1
   1676   3092     1
   1677   3092     1
   1680   1694     1
   1680   1695     1
   1680   1697     1
   1680   1698     1
   1680   1691     1
   1680   1692     1
   1681   1685     1
   1681   1686     1
   1681   1688     1
   1681   1689     1
   1681   1706     1
   1681   1707     1
   1682   1684     1
   1682   1687     1
   1682   1709     1
   1682   1705     1
   1682   1694     1
   1682   1695     1
   1683   1684     1
   1683   1687     1
   1683   1709     1
   1683   1705     1
   1683   1694     1
   1683   1695     1
   1684   1688     1
   1684   1689     1
   1684   1703     1
   1684   1704     1
   1685   1687     1
   1685   1709     1
   1685   1702     1
   1685   1697     1
   1685   1698     1
   1686   1687     1
   1686   1709     1
   1686   1702     1
   1686   1697     1
   1686   1698     1
   1687   1700     1
   1687   1701     1
   1688   1709     1
   1688   1699     1
   1688   1691     1
   1688   1692     1
   1689   1709     1
   1689   1699     1
   1689   1691     1
   1689   1692     1
   1690   1709     1
   1691   1708     1
   1691   1700     1
   1691   1701     1
   1692   1708     1
   1692   1700     1
   1692   1701     1
   1693   1709     1
   1694   3126     1
   1694   1706     1
   1694   1707     1
   1695   3126     1
   1695   1706     1
   1695   1707     1
   1696   1709     1
   1697   3112     1
   1697   1703     1
   1697   1704     1
   1698   3112     1
   1698   1703     1
   1698   1704     1
   1702   3107     1
   1702   3108     1
   1703   3106     1
   1704   3106     1
   1705   3121     1
   1705   3122     1
   1706   3120     1
   1707   3120     1
   1710   1724     1
   1710   1725     1
   1710   1727     1
   1710   1728     1
   1710   1721     1
   1710   1722     1
   1711   1715     1
   1711   1716     1
   1711   1718     1
   1711   1719     1
   1711   1736     1
   1711   1737     1
   1712   1714     1
   1712   1717     1
   1712   1739     1
   1712   1735     1
   1712   1724     1
   1712   1725     1
   1713   1714     1
   1713   1717     1
   1713   1739     1
   1713   1735     1
   1713   1724     1
   1713   1725     1
   1714   1718     1
   1714   1719     1
   1714   1733     1
   1714   1734     1
   1715   1717     1
   1715   1739     1
   1715   1732     1
   1715   1727     1
   1715   1728     1
   1716   1717     1
   1716   1739     1
   1716   1732     1
   1716   1727     1
   1716   1728     1
   1717   1730     1
   1717   1731     1
   1718   1739     1
   1718   1729     1
   1718   1721     1
   1718   1722     1
   1719   1739     1
   1719   1729     1
   1719   1721     1
   1719   1722     1
   1720   1739     1
   1721   1738     1
   1721   1730     1
   1721   1731     1
   1722   1738     1
   1722   1730     1
   1722   1731     1
   1723   1739     1
   1724   3154     1
   1724   1736     1
   1724   1737     1
   1725   3154     1
   1725   1736     1
   1725   1737     1
   1726   1739     1
   1727   3140     1
   1727   1733     1
   1727   1734     1
   1728   3140     1
   1728   1733     1
   1728   1734     1
   1732   3135     1
   1732   3136     1
   1733   3134     1
   1734   3134     1
   1735   3149     1
   1735   3150     1
   1736   3148     1
   1737   3148     1
   1740   1754     1
   1740   1755     1
   1740   1757     1
   1740   1758     1
   1740   1751     1
   1740   1752     1
   1741   1745     1
   1741   1746     1
   1741   1748     1
   1741   1749     1
   1741   1766     1
   1741   1767     1
   1742   1744     1
   1742   1747     1
   1742   1769     1
   1742   1765     1
   1742   1754     1
   1742   1755     1
   1743   1744     1
   1743   1747     1
   1743   1769     1
   1743   1765     1
   1743   1754     1
   1743   1755     1
   1744   1748     1
   1744   1749     1
   1744   1763     1
   1744   1764     1
   1745   1747     1
   1745   1769     1
   1745   1762     1
   1745   1757     1
   1745   1758     1
   1746   1747     1
   1746   1769     1
   1746   1762     1
   1746   1757     1
   1746   1758     1
   1747   1760     1
   1747   1761     1
   1748   1769     1
   1748   1759     1
   1748   1751     1
   1748   1752     1
   1749   1769     1
   1749   1759     1
   1749   1751     1
   1749   1752     1
   1750   1769     1
   1751   1768     1
   1751   1760     1
   1751   1761     1
   1752   1768     1
   1752   1760     1
   1752   1761     1
   1753   1769     1
   1754   3182     1
   1754   1766     1
   1754   1767     1
   1755   3182     1
   1755   1766     1
   1755   1767     1
   1756   1769     1
   1757   3168     1
   1757   1763     1
   1757   1764     1
   1758   3168     1
   1758   1763     1
   1758   1764     1
   1762   3163     1
   1762   3164     1
   1763   3162     1
   1764   3162     1
   1765   3177     1
   1765   3178     1
   1766   3176     1
   1767   3176     1
   1770   1784     1
   1770   1785     1
   1770   1787     1
   1770   1788     1
   1770   1781     1
   1770   1782     1
   1771   1775     1
   1771   1776     1
   1771   1778     1
   1771   1779     1
   1771   1796     1
   1771   1797     1
   1772   1774     1
   1772   1777     1
   1772   1799     1
   1772   1795     1
   1772   1784     1
   1772   1785     1
   1773   1774     1
   1773   1777     1
   1773   1799     1
   1773   1795     1
   1773   1784     1
   1773   1785     1
   1774   1778     1
   1774   1779     1
   1774   1793     1
   1774   1794     1
   1775   1777     1
   1775   1799     1
   1775   1792     1
   1775   1787     1
   1775   1788     1
   1776   1777     1
   1776   1799     1
   1776   1792     1
   1776   1787     1
   1776   1788     1
   1777   1790     1
   1777   1791     1
   1778   1799     1
   1778   1789     1
   1778   1781     1
   1778   1782     1
   1779   1799     1
   1779   1789     1
   1779   1781     1
   1779   1782     1
   1780   1799     1
   1781   1798     1
   1781   1790     1
   1781   1791     1
   1782   1798     1
   1782   1790     1
   1782   1791     1
   1783   1799     1
   1784   3210     1
   1784   1796     1
   1784   1797     1
   1785   3210     1
   1785   1796     1
   1785   1797     1
   1786   1799     1
   1787   3196     1
   1787   1793     1
   1787   1794     1
   1788   3196     1
   1788   1793     1
   1788   1794     1
   1792   3191     1
   1792   3192     1
   1793   3190     1
   1794   3190     1
   1795   3205     1
   1795   3206     1
   1796   3204     1
   1797   3204     1
   1800   1814     1
   1800   1815     1
   1800   1817     1
   1800   1818     1
   1800   1811     1
   1800   1812     1
   1801   1805     1
   1801   1806     1
   1801   1808     1
   1801   1809     1
   1801   1826     1
   1801   1827     1
   1802   1804     1
   1802   1807     1
   1802   1829     1
   1802   1825     1
   1802   1814     1
   1802   1815     1
   1803   1804     1
   1803   1807     1
   1803   1829     1
   1803   1825     1
   1803   1814     1
   1803   1815     1
   1804   1808     1
   1804   1809     1
   1804   1823     1
   1804   1824     1
   1805   1807     1
   1805   1829     1
   1805   1822     1
   1805   1817     1
   1805   1818     1
   1806   1807     1
   1806   1829     1
   1806   1822     1
   1806   1817     1
   1806   1818     1
   1807   1820     1
   1807   1821     1
   1808   1829     1
   1808   1819     1
   1808   1811     1
   1808   1812     1
   1809   1829     1
   1809   1819     1
   1809   1811     1
   1809   1812     1
   1810   1829     1
   1811   1828     1
   1811   1820     1
   1811   1821     1
   1812   1828     1
   1812   1820     1
   1812   1821     1
   1813   1829     1
   1814   3238     1
   1814   1826     1
   1814   1827     1
   1815   3238     1
   1815   1826     1
   1815   1827     1
   1816   1829     1
   1817   3224     1
   1817   1823     1
   1817   1824     1
   1818   3224     1
   1818   1823     1
   1818   1824     1
   1822   3219     1
   1822   3220     1
   1823   3218     1
   1824   3218     1
   1825   3233     1
   1825   3234     1
   1826   3232     1
   1827   3232     1
   1830   1844     1
   1830   1845     1
   1830   1847     1
   1830   1848     1
   1830   1841     1
   1830   1842     1
   1831   1835     1
   1831   1836     1
   1831   1838     1
   1831   1839     1
   1831   1856     1
   1831   1857     1
   1832   1834     1
   1832   1837     1
   1832   1859     1
   1832   1855     1
   1832   1844     1
   1832   1845     1
   1833   1834     1
   1833   1837     1
   1833   1859     1
   1833   1855     1
   1833   1844     1
   1833   1845     1
   1834   1838     1
   1834   1839     1
   1834   1853     1
   1834   1854     1
   1835   1837     1
   1835   1859     1
   1835   1852     1
   1835   1847     1
   1835   1848     1
   1836   1837     1
   1836   1859     1
   1836   1852     1
   1836   1847     1
   1836   1848     1
   1837   1850     1
   1837   1851     1
   1838   1859     1
   1838   1849     1
   1838   1841     1
   1838   1842     1
   1839   1859     1
   1839   1849     1
   1839   1841     1
   1839   1842     1
   1840   1859     1
   1841   1858     1
   1841   1850     1
   1841   1851     1
   1842   1858     1
   1842   1850     1
   1842   1851     1
   1843   1859     1
   1844   3266     1
   1844   1856     1
   1844   1857     1
   1845   3266     1
   1845   1856     1
   1845   1857     1
   1846   1859     1
   1847   3252     1
   1847   1853     1
   1847   1854     1
   1848   3252     1
   1848   1853     1
   1848   1854     1
   1852   3247     1
   1852   3248     1
   1853   3246     1
   1854   3246     1
   1855   3261     1
   1855   3262     1
   1856   3260     1
   1857   3260     1
   1860   1874     1
   1860   1875     1
   1860   1877     1
   1860   1878     1
   1860   1871     1
   1860   1872     1
   1861   1865     1
   1861   1866     1
   1861   1868     1
   1861   1869     1
   1861   1886     1
   1861   1887     1
   1862   1864     1
   1862   1867     1
   1862   1889     1
   1862   1885     1
   1862   1874     1
   1862   1875     1
   1863   1864     1
   1863   1867     1
   1863   1889     1
   1863   1885     1
   1863   1874     1
   1863   1875     1
   1864   1868     1
   1864   1869     1
   1864   1883     1
   1864   1884     1
   1865   1867     1
   1865   1889     1
   1865   1882     1
   1865   1877     1
   1865   1878     1
   1866   1867     1
   1866   1889     1
   1866   1882     1
   1866   1877     1
   1866   1878     1
   1867   1880     1
   1867   1881     1
   1868   1889     1
   1868   1879     1
   1868   1871     1
   1868   1872     1
   1869   1889     1
   1869   1879     1
   1869   1871     1
   1869   1872     1
   1870   1889     1
   1871   1888     1
   1871   1880     1
   1871   1881     1
   1872   1888     1
   1872   1880     1
   1872   1881     1
   1873   1889     1
   1874   3294     1
   1874   1886     1
   1874   1887     1
   1875   3294     1
   1875   1886     1
   1875   1887     1
   1876   1889     1
   1877   3280     1
   1877   1883     1
   1877   1884     1
   1878   3280     1
   1878   1883     1
   1878   1884     1
   1882   3275     1
   1882   3276     1
   1883   3274     1
   1884   3274     1
   1885   3289     1
   1885   3290     1
   1886   3288     1
   1887   3288     1
   1890   1904     1
   1890   1905     1
   1890   1907     1
   1890   1908     1
   1890   1901     1
   1890   1902     1
   1891   1895     1
   1891   1896     1
   1891   1898     1
   1891   1899     1
   1891   1916     1
   1891   1917     1
   1892   1894     1
   1892   1897     1
   1892   1919     1
   1892   1915     1
   1892   1904     1
   1892   1905     1
   1893   1894     1
   1893   1897     1
   1893   1919     1
   1893   1915     1
   1893   1904     1
   1893   1905     1
   1894   1898     1
   1894   1899     1
   1894   1913     1
   1894   1914     1
   1895   1897     1
   1895   1919     1
   1895   1912     1
   1895   1907     1
   1895   1908     1
   1896   1897     1
   1896   1919     1
   1896   1912     1
   1896   1907     1
   1896   1908     1
   1897   1910     1
   1897   1911     1
   1898   1919     1
   1898   1909     1
   1898   1901     1
   1898   1902     1
   1899   1919     1
   1899   1909     1
   1899   1901     1
   1899   1902     1
   1900   1919     1
   1901   1918     1
   1901   1910     1
   1901   1911     1
   1902   1918     1
   1902   1910     1
   1902   1911     1
   1903   1919     1
   1904   3322     1
   1904   1916     1
   1904   1917     1
   1905   3322     1
   1905   1916     1
   1905   1917     1
   1906   1919     1
   1907   3308     1
   1907   1913     1
   1907   1914     1
   1908   3308     1
   1908   1913     1
   1908   1914     1
   1912   3303     1
   1912   3304     1
   1913   3302     1
   1914   3302     1
   1915   3317     1
   1915   3318     1
   1916   3316     1
   1917   3316     1
   1920   1934     1
   1920   1935     1
   1920   1937     1
   1920   1938     1
   1920   1931     1
   1920   1932     1
   1921   1925     1
   1921   1926     1
   1921   1928     1
   1921   1929     1
   1921   1946     1
   1921   1947     1
   1922   1924     1
   1922   1927     1
   1922   1949     1
   1922   1945     1
   1922   1934     1
   1922   1935     1
   1923   1924     1
   1923   1927     1
   1923   1949     1
   1923   1945     1
   1923   1934     1
   1923   1935     1
   1924   1928     1
   1924   1929     1
   1924   1943     1
   1924   1944     1
   1925   1927     1
   1925   1949     1
   1925   1942     1
   1925   1937     1
   1925   1938     1
   1926   1927     1
   1926   1949     1
   1926   1942     1
   1926   1937     1
   1926   1938     1
   1927   1940     1
   1927   1941     1
   1928   1949     1
   1928   1939     1
   1928   1931     1
   1928   1932     1
   1929   1949     1
   1929   1939     1
   1929   1931     1
   1929   1932     1
   1930   1949     1
   1931   1948     1
   1931   1940     1
   1931   1941     1
   1932   1948     1
   1932   1940     1
   1932   1941     1
   1933   1949     1
   1934   3350     1
   1934   1946     1
   1934   1947     1
   1935   3350     1
   1935   1946     1
   1935   1947     1
   1936   1949     1
   1937   3336     1
   1937   1943     1
   1937   1944     1
   1938   3336     1
   1938   1943     1
   1938   1944     1
   1942   3331     1
   1942   3332     1
   1943   3330     1
   1944   3330     1
   1945   3345     1
   1945   3346     1
   1946   3344     1
   1947   3344     1
   1950   1964     1
   1950   1965     1
   1950   1967     1
   1950   1968     1
   1950   1961     1
   1950   1962     1
   1951   1955     1
   1951   1956     1
   1951   1958     1
   1951   1959     1
   1951   1976     1
   1951   1977     1
   1952   1954     1
   1952   1957     1
   1952   1979     1
   1952   1975     1
   1952   1964     1
   1952   1965     1
   1953   1954     1
   1953   1957     1
   1953   1979     1
   1953   1975     1
   1953   1964     1
   1953   1965     1
   1954   1958     1
   1954   1959     1
   1954   1973     1
   1954   1974     1
   1955   1957     1
   1955   1979     1
   1955   1972     1
   1955   1967     1
   1955   1968     1
   1956   1957     1
   1956   1979     1
   1956   1972     1
   1956   1967     1
   1956   1968     1
   1957   1970     1
   1957   1971     1
   1958   1979     1
   1958   1969     1
   1958   1961     1
   1958   1962     1
   1959   1979     1
   1959   1969     1
   1959   1961     1
   1959   1962     1
   1960   1979     1
   1961   1978     1
   1961   1970     1
   1961   1971     1
   1962   1978     1
   1962   1970     1
   1962   1971     1
   1963   1979     1
   1964   3378     1
   1964   1976     1
   1964   1977     1
   1965   3378     1
   1965   1976     1
   1965   1977     1
   1966   1979     1
   1967   3364     1
   1967   1973     1
   1967   1974     1
   1968   3364     1
   1968   1973     1
   1968   1974     1
   1972   3359     1
   1972   3360     1
   1973   3358     1
   1974   3358     1
   1975   3373     1
   1975   3374     1
   1976   3372     1
   1977   3372     1
   1980   1994     1
   1980   1995     1
   1980   1997     1
   1980   1998     1
   1980   1991     1
   1980   1992     1
   1981   1985     1
   1981   1986     1
   1981   1988     1
   1981   1989     1
   1981   2006     1
   1981   2007     1
   1982   1984     1
   1982   1987     1
   1982   2009     1
   1982   2005     1
   1982   1994     1
   1982   1995     1
   1983   1984     1
   1983   1987     1
   1983   2009     1
   1983   2005     1
   1983   1994     1
   1983   1995     1
   1984   1988     1
   1984   1989     1
   1984   2003     1
   1984   2004     1
   1985   1987     1
   1985   2009     1
   1985   2002     1
   1985   1997     1
   1985   1998     1
   1986   1987     1
   1986   2009     1
   1986   2002     1
   1986   1997     1
   1986   1998     1
   1987   2000     1
   1987   2001     1
   1988   2009     1
   1988   1999     1
   1988   1991     1
   1988   1992     1
   1989   2009     1
   1989   1999     1
   1989   1991     1
   1989   1992     1
   1990   2009     1
   1991   2008     1
   1991   2000     1
   1991   2001     1
   1992   2008     1
   1992   2000     1
   1992   2001     1
   1993   2009     1
   1994   3406     1
   1994   2006     1
   1994   2007     1
   1995   3406     1
   1995   2006     1
   1995   2007     1
   1996   2009     1
   1997   3392     1
   1997   2003     1
   1997   2004     1
   1998   3392     1
   1998   2003     1
   1998   2004     1
   2002   3387     1
   2002   3388     1
   2003   3386     1
   2004   3386     1
   2005   3401     1
   2005   3402     1
   2006   3400     1
   2007   3400     1
   2010   2024     1
   2010   2025     1
   2010   2027     1
   2010   2028     1
   2010   2021     1
   2010   2022     1
   2011   2015     1
   2011   2016     1
   2011   2018     1
   2011   2019     1
   2011   2036     1
   2011   2037     1
   2012   2014     1
   2012   2017     1
   2012   2039     1
   2012   2035     1
   2012   2024     1
   2012   2025     1
   2013   2014     1
   2013   2017     1
   2013   2039     1
   2013   2035     1
   2013   2024     1
   2013   2025     1
   2014   2018     1
   2014   2019     1
   2014   2033     1
   2014   2034     1
   2015   2017     1
   2015   2039     1
   2015   2032     1
   2015   2027     1
   2015   2028     1
   2016   2017     1
   2016   2039     1
   2016   2032     1
   2016   2027     1
   2016   2028     1
   2017   2030     1
   2017   2031     1
   2018   2039     1
   2018   2029     1
   2018   2021     1
   2018   2022     1
   2019   2039     1
   2019   2029     1
   2019   2021     1
   2019   2022     1
   2020   2039     1
   2021   2038     1
   2021   2030     1
   2021   2031     1
   2022   2038     1
   2022   2030     1
   2022   2031     1
   2023   2039     1
   2024   3434     1
   2024   2036     1
   2024   2037     1
   2025   3434     1
   2025   2036     1
   2025   2037     1
   2026   2039     1
   2027   3420     1
   2027   2033     1
   2027   2034     1
   2028   3420     1
   2028   2033     1
   2028   2034     1
   2032   3415     1
   2032   3416     1
   2033   3414     1
   2034   3414     1
   2035   3429     1
   2035   3430     1
   2036   3428     1
   2037   3428     1
   2040   2054     1
   2040   2055     1
   2040   2057     1
   2040   2058     1
   2040   2051     1
   2040   2052     1
   2041   2045     1
   2041   2046     1
   2041   2048     1
   2041   2049     1
   2041   2066     1
   2041   2067     1
   2042   2044     1
   2042   2047     1
   2042   2069     1
   2042   2065     1
   2042   2054     1
   2042   2055     1
   2043   2044     1
   2043   2047     1
   2043   2069     1
   2043   2065     1
   2043   2054     1
   2043   2055     1
   2044   2048     1
   2044   2049     1
   2044   2063     1
   2044   2064     1
   2045   2047     1
   2045   2069     1
   2045   2062     1
   2045   2057     1
   2045   2058     1
   2046   2047     1
   2046   2069     1
   2046   2062     1
   2046   2057     1
   2046   2058     1
   2047   2060     1
   2047   2061     1
   2048   2069     1
   2048   2059     1
   2048   2051     1
   2048   2052     1
   2049   2069     1
   2049   2059     1
   2049   2051     1
   2049   2052     1
   2050   2069     1
   2051   2068     1
   2051   2060     1
   2051   2061     1
   2052   2068     1
   2052   2060     1
   2052   2061     1
   2053   2069     1
   2054   3462     1
   2054   2066     1
   2054   2067     1
   2055   3462     1
   2055   2066     1
   2055   2067     1
   2056   2069     1
   2057   3448     1
   2057   2063     1
   2057   2064     1
   2058   3448     1
   2058   2063     1
   2058   2064     1
   2062   3443     1
   2062   3444     1
   2063   3442     1
   2064   3442     1
   2065   3457     1
   2065   3458     1
   2066   3456     1
   2067   3456     1
   2070   2084     1
   2070   2085     1
   2070   2087     1
   2070   2088     1
   2070   2081     1
   2070   2082     1
   2071   2075     1
   2071   2076     1
   2071   2078     1
   2071   2079     1
   2071   2096     1
   2071   2097     1
   2072   2074     1
   2072   2077     1
   2072   2099     1
   2072   2095     1
   2072   2084     1
   2072   2085     1
   2073   2074     1
   2073   2077     1
   2073   2099     1
   2073   2095     1
   2073   2084     1
   2073   2085     1
   2074   2078     1
   2074   2079     1
   2074   2093     1
   2074   2094     1
   2075   2077     1
   2075   2099     1
   2075   2092     1
   2075   2087     1
   2075   2088     1
   2076   2077     1
   2076   2099     1
   2076   2092     1
   2076   2087     1
   2076   2088     1
   2077   2090     1
   2077   2091     1
   2078   2099     1
   2078   2089     1
   2078   2081     1
   2078   2082     1
   2079   2099     1
   2079   2089     1
   2079   2081     1
   2079   2082     1
   2080   2099     1
   2081   2098     1
   2081   2090     1
   2081   2091     1
   2082   2098     1
   2082   2090     1
   2082   2091     1
   2083   2099     1
   2084   3490     1
   2084   2096     1
   2084   2097     1
   2085   3490     1
   2085   2096     1
   2085   2097     1
   2086   2099     1
   2087   3476     1
   2087   2093     1
   2087   2094     1
   2088   3476     1
   2088   2093     1
   2088   2094     1
   2092   3471     1
   2092   3472     1
   2093   3470     1
   2094   3470     1
   2095   3485     1
   2095   3486     1
   2096   3484     1
   2097   3484     1
   2100   2114     1
   2100   2115     1
   2100   2117     1
   2100   2118     1
   2100   2111     1
   2100   2112     1
   2101   2105     1
   2101   2106     1
   2101   2108     1
   2101   2109     1
   2101   2126     1
   2101   2127     1
   2102   2104     1
   2102   2107     1
   2102   2129     1
   2102   2125     1
   2102   2114     1
   2102   2115     1
   2103   2104     1
   2103   2107     1
   2103   2129     1
   2103   2125     1
   2103   2114     1
   2103   2115     1
   2104   2108     1
   2104   2109     1
   2104   2123     1
   2104   2124     1
   2105   2107     1
   2105   2129     1
   2105   2122     1
   2105   2117     1
   2105   2118     1
   2106   2107     1
   2106   2129     1
   2106   2122     1
   2106   2117     1
   2106   2118     1
   2107   2120     1
   2107   2121     1
   2108   2129     1
   2108   2119     1
   2108   2111     1
   2108   2112     1
   2109   2129     1
   2109   2119     1
   2109   2111     1
   2109   2112     1
   2110   2129     1
   2111   2128     1
   2111   2120     1
   2111   2121     1
   2112   2128     1
   2112   2120     1
   2112   2121     1
   2113   2129     1
   2114   3518     1
   2114   2126     1
   2114   2127     1
   2115   3518     1
   2115   2126     1
   2115   2127     1
   2116   2129     1
   2117   3504     1
   2117   2123     1
   2117   2124     1
   2118   3504     1
   2118   2123     1
   2118   2124     1
   2122   3499     1
   2122   3500     1
   2123   3498     1
   2124   3498     1
   2125   3513     1
   2125   3514     1
   2126   3512     1
   2127   3512     1
   2130   2144     1
   2130   2145     1
   2130   2147     1
   2130   2148     1
   2130   2141     1
   2130   2142     1
   2131   2135     1
   2131   2136     1
   2131   2138     1
   2131   2139     1
   2131   2156     1
   2131   2157     1
   2132   2134     1
   2132   2137     1
   2132   2159     1
   2132   2155     1
   2132   2144     1
   2132   2145     1
   2133   2134     1
   2133   2137     1
   2133   2159     1
   2133   2155     1
   2133   2144     1
   2133   2145     1
   2134   2138     1
   2134   2139     1
   2134   2153     1
   2134   2154     1
   2135   2137     1
   2135   2159     1
   2135   2152     1
   2135   2147     1
   2135   2148     1
   2136   2137     1
   2136   2159     1
   2136   2152     1
   2136   2147     1
   2136   2148     1
   2137   2150     1
   2137   2151     1
   2138   2159     1
   2138   2149     1
   2138   2141     1
   2138   2142     1
   2139   2159     1
   2139   2149     1
   2139   2141     1
   2139   2142     1
   2140   2159     1
   2141   2158     1
   2141   2150     1
   2141   2151     1
   2142   2158     1
   2142   2150     1
   2142   2151     1
   2143   2159     1
   2144   3546     1
   2144   2156     1
   2144   2157     1
   2145   3546     1
   2145   2156     1
   2145   2157     1
   2146   2159     1
   2147   3532     1
   2147   2153     1
   2147   2154     1
   2148   3532     1
   2148   2153     1
   2148   2154     1
   2152   3527     1
   2152   3528     1
   2153   3526     1
   2154   3526     1
   2155   3541     1
   2155   3542     1
   2156   3540     1
   2157   3540     1
   2160   2174     1
   2160   2175     1
   2160   2177     1
   2160   2178     1
   2160   2171     1
   2160   2172     1
   2161   2165     1
   2161   2166     1
   2161   2168     1
   2161   2169     1
   2161   2186     1
   2161   2187     1
   2162   2164     1
   2162   2167     1
   2162   2189     1
   2162   2185     1
   2162   2174     1
   2162   2175     1
   2163   2164     1
   2163   2167     1
   2163   2189     1
   2163   2185     1
   2163   2174     1
   2163   2175     1
   2164   2168     1
   2164   2169     1
   2164   2183     1
   2164   2184     1
   2165   2167     1
   2165   2189     1
   2165   2182     1
   2165   2177     1
   2165   2178     1
   2166   2167     1
   2166   2189     1
   2166   2182     1
   2166   2177     1
   2166   2178     1
   2167   2180     1
   2167   2181     1
   2168   2189     1
   2168   2179     1
   2168   2171     1
   2168   2172     1
   2169   2189     1
   2169   2179     1
   2169   2171     1
   2169   2172     1
   2170   2189     1
   2171   2188     1
   2171   2180     1
   2171   2181     1
   2172   2188     1
   2172   2180     1
   2172   2181     1
   2173   2189     1
   2174   3574     1
   2174   2186     1
   2174   2187     1
   2175   3574     1
   2175   2186     1
   2175   2187     1
   2176   2189     1
   2177   3560     1
   2177   2183     1
   2177   2184     1
   2178   3560     1
   2178   2183     1
   2178   2184     1
   2182   3555     1
   2182   3556     1
   2183   3554     1
   2184   3554     1
   2185   3569     1
   2185   3570     1
   2186   3568     1
   2187   3568     1
   2190   2204     1
   2190   2205     1
   2190   2207     1
   2190   2208     1
   2190   2201     1
   2190   2202     1
   2191   2195     1
   2191   2196     1
   2191   2198     1
   2191   2199     1
   2191   2216     1
   2191   2217     1
   2192   2194     1
   2192   2197     1
   2192   2219     1
   2192   2215     1
   2192   2204     1
   2192   2205     1
   2193   2194     1
   2193   2197     1
   2193   2219     1
   2193   2215     1
   2193   2204     1
   2193   2205     1
   2194   2198     1
   2194   2199     1
   2194   2213     1
   2194   2214     1
   2195   2197     1
   2195   2219     1
   2195   2212     1
   2195   2207     1
   2195   2208     1
   2196   2197     1
   2196   2219     1
   2196   2212     1
   2196   2207     1
   2196   2208     1
   2197   2210     1
   2197   2211     1
   2198   2219     1
   2198   2209     1
   2198   2201     1
   2198   2202     1
   2199   2219     1
   2199   2209     1
   2199   2201     1
   2199   2202     1
   2200   2219     1
   2201   2218     1
   2201   2210     1
   2201   2211     1
   2202   2218     1
   2202   2210     1
   2202   2211     1
   2203   2219     1
   2204   3602     1
   2204   2216     1
   2204   2217     1
   2205   3602     1
   2205   2216     1
   2205   2217     1
   2206   2219     1
   2207   3588     1
   2207   2213     1
   2207   2214     1
   2208   3588     1
   2208   2213     1
   2208   2214     1
   2212   3583     1
   2212   3584     1
   2213   3582     1
   2214   3582     1
   2215   3597     1
   2215   3598     1
   2216   3596     1
   2217   3596     1
   2220   2234     1
   2220   2235     1
   2220   2237     1
   2220   2238     1
   2220   2231     1
   2220   2232     1
   2221   2225     1
   2221   2226     1
   2221   2228     1
   2221   2229     1
   2221   2246     1
   2221   2247     1
   2222   2224     1
   2222   2227     1
   2222   2249     1
   2222   2245     1
   2222   2234     1
   2222   2235     1
   2223   2224     1
   2223   2227     1
   2223   2249     1
   2223   2245     1
   2223   2234     1
   2223   2235     1
   2224   2228     1
   2224   2229     1
   2224   2243     1
   2224   2244     1
   2225   2227     1
   2225   2249     1
   2225   2242     1
   2225   2237     1
   2225   2238     1
   2226   2227     1
   2226   2249     1
   2226   2242     1
   2226   2237     1
   2226   2238     1
   2227   2240     1
   2227   2241     1
   2228   2249     1
   2228   2239     1
   2228   2231     1
   2228   2232     1
   2229   2249     1
   2229   2239     1
   2229   2231     1
   2229   2232     1
   2230   2249     1
   2231   2248     1
   2231   2240     1
   2231   2241     1
   2232   2248     1
   2232   2240     1
   2232   2241     1
   2233   2249     1
   2234   3630     1
   2234   2246     1
   2234   2247     1
   2235   3630     1
   2235   2246     1
   2235   2247     1
   2236   2249     1
   2237   3616     1
   2237   2243     1
   2237   2244     1
   2238   3616     1
   2238   2243     1
   2238   2244     1
   2242   3611     1
   2242   3612     1
   2243   3610     1
   2244   3610     1
   2245   3625     1
   2245   3626     1
   2246   3624     1
   2247   3624     1
   2250   2264     1
   2250   2265     1
   2250   2267     1
   2250   2268     1
   2250   2261     1
   2250   2262     1
   2251   2255     1
   2251   2256     1
   2251   2258     1
   2251   2259     1
   2251   2276     1
   2251   2277     1
   2252   2254     1
   2252   2257     1
   2252   2279     1
   2252   2275     1
   2252   2264     1
   2252   2265     1
   2253   2254     1
   2253   2257     1
   2253   2279     1
   2253   2275     1
   2253   2264     1
   2253   2265     1
   2254   2258     1
   2254   2259     1
   2254   2273     1
   2254   2274     1
   2255   2257     1
   2255   2279     1
   2255   2272     1
   2255   2267     1
   2255   2268     1
   2256   2257     1
   2256   2279     1
   2256   2272     1
   2256   2267     1
   2256   2268     1
   2257   2270     1
   2257   2271     1
   2258   2279     1
   2258   2269     1
   2258   2261     1
   2258   2262     1
   2259   2279     1
   2259   2269     1
   2259   2261     1
   2259   2262     1
   2260   2279     1
   2261   2278     1
   2261   2270     1
   2261   2271     1
   2262   2278     1
   2262   2270     1
   2262   2271     1
   2263   2279     1
   2264   3658     1
   2264   2276     1
   2264   2277     1
   2265   3658     1
   2265   2276     1
   2265   2277     1
   2266   2279     1
   2267   3644     1
   2267   2273     1
   2267   2274     1
   2268   3644     1
   2268   2273     1
   2268   2274     1
   2272   3639     1
   2272   3640     1
   2273   3638     1
   2274   3638     1
   2275   3653     1
   2275   3654     1
   2276   3652     1
   2277   3652     1
   2280   2294     1
   2280   2295     1
   2280   2297     1
   2280   2298     1
   2280   2291     1
   2280   2292     1
   2281   2285     1
   2281   2286     1
   2281   2288     1
   2281   2289     1
   2281   2306     1
   2281   2307     1
   2282   2284     1
   2282   2287     1
   2282   2309     1
   2282   2305     1
   2282   2294     1
   2282   2295     1
   2283   2284     1
   2283   2287     1
   2283   2309     1
   2283   2305     1
   2283   2294     1
   2283   2295     1
   2284   2288     1
   2284   2289     1
   2284   2303     1
   2284   2304     1
   2285   2287     1
   2285   2309     1
   2285   2302     1
   2285   2297     1
   2285   2298     1
   2286   2287     1
   2286   2309     1
   2286   2302     1
   2286   2297     1
   2286   2298     1
   2287   2300     1
   2287   2301     1
   2288   2309     1
   2288   2299     1
   2288   2291     1
   2288   2292     1
   2289   2309     1
   2289   2299     1
   2289   2291     1
   2289   2292     1
   2290   2309     1
   2291   2308     1
   2291   2300     1
   2291   2301     1
   2292   2308     1
   2292   2300     1
   2292   2301     1
   2293   2309     1
   2294   3686     1
   2294   2306     1
   2294   2307     1
   2295   3686     1
   2295   2306     1
   2295   2307     1
   2296   2309     1
   2297   3672     1
   2297   2303     1
   2297   2304     1
   2298   3672     1
   2298   2303     1
   2298   2304     1
   2302   3667     1
   2302   3668     1
   2303   3666     1
   2304   3666     1
   2305   3681     1
   2305   3682     1
   2306   3680     1
   2307   3680     1
   2310   2324     1
   2310   2325     1
   2310   2327     1
   2310   2328     1
   2310   2321     1
   2310   2322     1
   2311   2315     1
   2311   2316     1
   2311   2318     1
   2311   2319     1
   2311   2336     1
   2311   2337     1
   2312   2314     1
   2312   2317     1
   2312   2339     1
   2312   2335     1
   2312   2324     1
   2312   2325     1
   2313   2314     1
   2313   2317     1
   2313   2339     1
   2313   2335     1
   2313   2324     1
   2313   2325     1
   2314   2318     1
   2314   2319     1
   2314   2333     1
   2314   2334     1
   2315   2317     1
   2315   2339     1
   2315   2332     1
   2315   2327     1
   2315   2328     1
   2316   2317     1
   2316   2339     1
   2316   2332     1
   2316   2327     1
   2316   2328     1
   2317   2330     1
   2317   2331     1
   2318   2339     1
   2318   2329     1
   2318   2321     1
   2318   2322     1
   2319   2339     1
   2319   2329     1
   2319   2321     1
   2319   2322     1
   2320   2339     1
   2321   2338     1
   2321   2330     1
   2321   2331     1
   2322   2338     1
   2322   2330     1
   2322   2331     1
   2323   2339     1
   2324   3714     1
   2324   2336     1
   2324   2337     1
   2325   3714     1
   2325   2336     1
   2325   2337     1
   2326   2339     1
   2327   3700     1
   2327   2333     1
   2327   2334     1
   2328   3700     1
   2328   2333     1
   2328   2334     1
   2332   3695     1
   2332   3696     1
   2333   3694     1
   2334   3694     1
   2335   3709     1
   2335   3710     1
   2336   3708     1
   2337   3708     1
   2340   2354     1
   2340   2355     1
   2340   2357     1
   2340   2358     1
   2340   2351     1
   2340   2352     1
   2341   2345     1
   2341   2346     1
   2341   2348     1
   2341   2349     1
   2341   2366     1
   2341   2367     1
   2342   2344     1
   2342   2347     1
   2342   2369     1
   2342   2365     1
   2342   2354     1
   2342   2355     1
   2343   2344     1
   2343   2347     1
   2343   2369     1
   2343   2365     1
   2343   2354     1
   2343   2355     1
   2344   2348     1
   2344   2349     1
   2344   2363     1
   2344   2364     1
   2345   2347     1
   2345   2369     1
   2345   2362     1
   2345   2357     1
   2345   2358     1
   2346   2347     1
   2346   2369     1
   2346   2362     1
   2346   2357     1
   2346   2358     1
   2347   2360     1
   2347   2361     1
   2348   2369     1
   2348   2359     1
   2348   2351     1
   2348   2352     1
   2349   2369     1
   2349   2359     1
   2349   2351     1
   2349   2352     1
   2350   2369     1
   2351   2368     1
   2351   2360     1
   2351   2361     1
   2352   2368     1
   2352   2360     1
   2352   2361     1
   2353   2369     1
   2354   3742     1
   2354   2366     1
   2354   2367     1
   2355   3742     1
   2355   2366     1
   2355   2367     1
   2356   2369     1
   2357   3728     1
   2357   2363     1
   2357   2364     1
   2358   3728     1
   2358   2363     1
   2358   2364     1
   2362   3723     1
   2362   3724     1
   2363   3722     1
   2364   3722     1
   2365   3737     1
   2365   3738     1
   2366   3736     1
   2367   3736     1
   2370   2384     1
   2370   2385     1
   2370   2387     1
   2370   2388     1
   2370   2381     1
   2370   2382     1
   2371   2375     1
   2371   2376     1
   2371   2378     1
   2371   2379     1
   2371   2396     1
   2371   2397     1
   2372   2374     1
   2372   2377     1
   2372   2399     1
   2372   2395     1
   2372   2384     1
   2372   2385     1
   2373   2374     1
   2373   2377     1
   2373   2399     1
   2373   2395     1
   2373   2384     1
   2373   2385     1
   2374   2378     1
   2374   2379     1
   2374   2393     1
   2374   2394     1
   2375   2377     1
   2375   2399     1
   2375   2392     1
   2375   2387     1
   2375   2388     1
   2376   2377     1
   2376   2399     1
   2376   2392     1
   2376   2387     1
   2376   2388     1
   2377   2390     1
   2377   2391     1
   2378   2399     1
   2378   2389     1
   2378   2381     1
   2378   2382     1
   2379   2399     1
   2379   2389     1
   2379   2381     1
   2379   2382     1
   2380   2399     1
   2381   2398     1
   2381   2390     1
   2381   2391     1
   2382   2398     1
   2382   2390     1
   2382   2391     1
   2383   2399     1
   2384   3770     1
   2384   2396     1
   2384   2397     1
   2385   3770     1
   2385   2396     1
   2385   2397     1
   2386   2399     1
   2387   3756     1
   2387   2393     1
   2387   2394     1
   2388   3756     1
   2388   2393     1
   2388   2394     1
   2392   3751     1
   2392   3752     1
   2393   3750     1
   2394   3750     1
   2395   3765     1
   2395   3766     1
   2396   3764     1
   2397   3764     1
   2400   2414     1
   2400   2415     1
   2400   2417     1
   2400   2418     1
   2400   2411     1
   2400   2412     1
   2401   2405     1
   2401   2406     1
   2401   2408     1
   2401   2409     1
   2401   2426     1
   2401   2427     1
   2402   2404     1
   2402   2407     1
   2402   2429     1
   2402   2425     1
   2402   2414     1
   2402   2415     1
   2403   2404     1
   2403   2407     1
   2403   2429     1
   2403   2425     1
   2403   2414     1
   2403   2415     1
   2404   2408     1
   2404   2409     1
   2404   2423     1
   2404   2424     1
   2405   2407     1
   2405   2429     1
   2405   2422     1
   2405   2417     1
   2405   2418     1
   2406   2407     1
   2406   2429     1
   2406   2422     1
   2406   2417     1
   2406   2418     1
   2407   2420     1
   2407   2421     1
   2408   2429     1
   2408   2419     1
   2408   2411     1
   2408   2412     1
   2409   2429     1
   2409   2419     1
   2409   2411     1
   2409   2412     1
   2410   2429     1
   2411   2428     1
   2411   2420     1
   2411   2421     1
   2412   2428     1
   2412   2420     1
   2412   2421     1
   2413   2429     1
   2414   3798     1
   2414   2426     1
   2414   2427     1
   2415   3798     1
   2415   2426     1
   2415   2427     1
   2416   2429     1
   2417   3784     1
   2417   2423     1
   2417   2424     1
   2418   3784     1
   2418   2423     1
   2418   2424     1
   2422   3779     1
   2422   3780     1
   2423   3778     1
   2424   3778     1
   2425   3793     1
   2425   3794     1
   2426   3792     1
   2427   3792     1
   2430   2444     1
   2430   2445     1
   2430   2447     1
   2430   2448     1
   2430   2441     1
   2430   2442     1
   2431   2435     1
   2431   2436     1
   2431   2438     1
   2431   2439     1
   2431   2456     1
   2431   2457     1
   2432   2434     1
   2432   2437     1
   2432   2459     1
   2432   2455     1
   2432   2444     1
   2432   2445     1
   2433   2434     1
   2433   2437     1
   2433   2459     1
   2433   2455     1
   2433   2444     1
   2433   2445     1
   2434   2438     1
   2434   2439     1
   2434   2453     1
   2434   2454     1
   2435   2437     1
   2435   2459     1
   2435   2452     1
   2435   2447     1
   2435   2448     1
   2436   2437     1
   2436   2459     1
   2436   2452     1
   2436   2447     1
   2436   2448     1
   2437   2450     1
   2437   2451     1
   2438   2459     1
   2438   2449     1
   2438   2441     1
   2438   2442     1
   2439   2459     1
   2439   2449     1
   2439   2441     1
   2439   2442     1
   2440   2459     1
   2441   2458     1
   2441   2450     1
   2441   2451     1
   2442   2458     1
   2442   2450     1
   2442   2451     1
   2443   2459     1
   2444   3826     1
   2444   2456     1
   2444   2457     1
   2445   3826     1
   2445   2456     1
   2445   2457     1
   2446   2459     1
   2447   3812     1
   2447   2453     1
   2447   2454     1
   2448   3812     1
   2448   2453     1
   2448   2454     1
   2452   3807     1
   2452   3808     1
   2453   3806     1
   2454   3806     1
   2455   3821     1
   2455   3822     1
   2456   3820     1
   2457   3820     1
   2460   2474     1
   2460   2475     1
   2460   2477     1
   2460   2478     1
   2460   2471     1
   2460   2472     1
   2461   2465     1
   2461   2466     1
   2461   2468     1
   2461   2469     1
   2461   2486     1
   2461   2487     1
   2462   2464     1
   2462   2467     1
   2462   2489     1
   2462   2485     1
   2462   2474     1
   2462   2475     1
   2463   2464     1
   2463   2467     1
   2463   2489     1
   2463   2485     1
   2463   2474     1
   2463   2475     1
   2464   2468     1
   2464   2469     1
   2464   2483     1
   2464   2484     1
   2465   2467     1
   2465   2489     1
   2465   2482     1
   2465   2477     1
   2465   2478     1
   2466   2467     1
   2466   2489     1
   2466   2482     1
   2466   2477     1
   2466   2478     1
   2467   2480     1
   2467   2481     1
   2468   2489     1
   2468   2479     1
   2468   2471     1
   2468   2472     1
   2469   2489     1
   2469   2479     1
   2469   2471     1
   2469   2472     1
   2470   2489     1
   2471   2488     1
   2471   2480     1
   2471   2481     1
   2472   2488     1
   2472   2480     1
   2472   2481     1
   2473   2489     1
   2474   3854     1
   2474   2486     1
   2474   2487     1
   2475   3854     1
   2475   2486     1
   2475   2487     1
   2476   2489     1
   2477   3840     1
   2477   2483     1
   2477   2484     1
   2478   3840     1
   2478   2483     1
   2478   2484     1
   2482   3835     1
   2482   3836     1
   2483   3834     1
   2484   3834     1
   2485   3849     1
   2485   3850     1
   2486   3848     1
   2487   3848     1
   2490   2504     1
   2490   2505     1
   2490   2507     1
   2490   2508     1
   2490   2501     1
   2490   2502     1
   2491   2495     1
   2491   2496     1
   2491   2498     1
   2491   2499     1
   2491   2516     1
   2491   2517     1
   2492   2494     1
   2492   2497     1
   2492   2519     1
   2492   2515     1
   2492   2504     1
   2492   2505     1
   2493   2494     1
   2493   2497     1
   2493   2519     1
   2493   2515     1
   2493   2504     1
   2493   2505     1
   2494   2498     1
   2494   2499     1
   2494   2513     1
   2494   2514     1
   2495   2497     1
   2495   2519     1
   2495   2512     1
   2495   2507     1
   2495   2508     1
   2496   2497     1
   2496   2519     1
   2496   2512     1
   2496   2507     1
   2496   2508     1
   2497   2510     1
   2497   2511     1
   2498   2519     1
   2498   2509     1
   2498   2501     1
   2498   2502     1
   2499   2519     1
   2499   2509     1
   2499   2501     1
   2499   2502     1
   2500   2519     1
   2501   2518     1
   2501   2510     1
   2501   2511     1
   2502   2518     1
   2502   2510     1
   2502   2511     1
   2503   2519     1
   2504   3882     1
   2504   2516     1
   2504   2517     1
   2505   3882     1
   2505   2516     1
   2505   2517     1
   2506   2519     1
   2507   3868     1
   2507   2513     1
   2507   2514     1
   2508   3868     1
   2508   2513     1
   2508   2514     1
   2512   3863     1
   2512   3864     1
   2513   3862     1
   2514   3862     1
   2515   3877     1
   2515   3878     1
   2516   3876     1
   2517   3876     1
   2520   2534     1
   2520   2535     1
   2520   2537     1
   2520   2538     1
   2520   2531     1
   2520   2532     1
   2521   2525     1
   2521   2526     1
   2521   2528     1
   2521   2529     1
   2521   2546     1
   2521   2547     1
   2522   2524     1
   2522   2527     1
   2522   2549     1
   2522   2545     1
   2522   2534     1
   2522   2535     1
   2523   2524     1
   2523   2527     1
   2523   2549     1
   2523   2545     1
   2523   2534     1
   2523   2535     1
   2524   2528     1
   2524   2529     1
   2524   2543     1
   2524   2544     1
   2525   2527     1
   2525   2549     1
   2525   2542     1
   2525   2537     1
   2525   2538     1
   2526   2527     1
   2526   2549     1
   2526   2542     1
   2526   2537     1
   2526   2538     1
   2527   2540     1
   2527   2541     1
   2528   2549     1
   2528   2539     1
   2528   2531     1
   2528   2532     1
   2529   2549     1
   2529   2539     1
   2529   2531     1
   2529   2532     1
   2530   2549     1
   2531   2548     1
   2531   2540     1
   2531   2541     1
   2532   2548     1
   2532   2540     1
   2532   2541     1
   2533   2549     1
   2534   3910     1
   2534   2546     1
   2534   2547     1
   2535   3910     1
   2535   2546     1
   2535   2547     1
   2536   2549     1
   2537   3896     1
   2537   2543     1
   2537   2544     1
   2538   3896     1
   2538   2543     1
   2538   2544     1
   2542   3891     1
   2542   3892     1
   2543   3890     1
   2544   3890     1
   2545   3905     1
   2545   3906     1
   2546   3904     1
   2547   3904     1
   2550   2564     1
   2550   2565     1
   2550   2567     1
   2550   2568     1
   2550   2561     1
   2550   2562     1
   2551   2555     1
   2551   2556     1
   2551   2558     1
   2551   2559     1
   2551   2576     1
   2551   2577     1
   2552   2554     1
   2552   2557     1
   2552   2579     1
   2552   2575     1
   2552   2564     1
   2552   2565     1
   2553   2554     1
   2553   2557     1
   2553   2579     1
   2553   2575     1
   2553   2564     1
   2553   2565     1
   2554   2558     1
   2554   2559     1
   2554   2573     1
   2554   2574     1
   2555   2557     1
   2555   2579     1
   2555   2572     1
   2555   2567     1
   2555   2568     1
   2556   2557     1
   2556   2579     1
   2556   2572     1
   2556   2567     1
   2556   2568     1
   2557   2570     1
   2557   2571     1
   2558   2579     1
   2558   2569     1
   2558   2561     1
   2558   2562     1
   2559   2579     1
   2559   2569     1
   2559   2561     1
   2559   2562     1
   2560   2579     1
   2561   2578     1
   2561   2570     1
   2561   2571     1
   2562   2578     1
   2562   2570     1
   2562   2571     1
   2563   2579     1
   2564   3938     1
   2564   2576     1
   2564   2577     1
   2565   3938     1
   2565   2576     1
   2565   2577     1
   2566   2579     1
   2567   3924     1
   2567   2573     1
   2567   2574     1
   2568   3924     1
   2568   2573     1
   2568   2574     1
   2572   3919     1
   2572   3920     1
   2573   3918     1
   2574   3918     1
   2575   3933     1
   2575   3934     1
   2576   3932     1
   2577   3932     1
   2580   2594     1
   2580   2595     1
   2580   2597     1
   2580   2598     1
   2580   2591     1
   2580   2592     1
   2581   2585     1
   2581   2586     1
   2581   2588     1
   2581   2589     1
   2581   2606     1
   2581   2607     1
   2582   2584     1
   2582   2587     1
   2582   2609     1
   2582   2605     1
   2582   2594     1
   2582   2595     1
   2583   2584     1
   2583   2587     1
   2583   2609     1
   2583   2605     1
   2583   2594     1
   2583   2595     1
   2584   2588     1
   2584   2589     1
   2584   2603     1
   2584   2604     1
   2585   2587     1
   2585   2609     1
   2585   2602     1
   2585   2597     1
   2585   2598     1
   2586   2587     1
   2586   2609     1
   2586   2602     1
   2586   2597     1
   2586   2598     1
   2587   2600     1
   2587   2601     1
   2588   2609     1
   2588   2599     1
   2588   2591     1
   2588   2592     1
   2589   2609     1
   2589   2599     1
   2589   2591     1
   2589   2592     1
   2590   2609     1
   2591   2608     1
   2591   2600     1
   2591   2601     1
   2592   2608     1
   2592   2600     1
   2592   2601     1
   2593   2609     1
   2594   3966     1
   2594   2606     1
   2594   2607     1
   2595   3966     1
   2595   2606     1
   2595   2607     1
   2596   2609     1
   2597   3952     1
   2597   2603     1
   2597   2604     1
   2598   3952     1
   2598   2603     1
   2598   2604     1
   2602   3947     1
   2602   3948     1
   2603   3946     1
   2604   3946     1
   2605   3961     1
   2605   3962     1
   2606   3960     1
   2607   3960     1
   2610   2624     1
   2610   2625     1
   2610   2627     1
   2610   2628     1
   2610   2621     1
   2610   2622     1
   2611   2615     1
   2611   2616     1
   2611   2618     1
   2611   2619     1
   2611   2636     1
   2611   2637     1
   2612   2614     1
   2612   2617     1
   2612   2639     1
   2612   2635     1
   2612   2624     1
   2612   2625     1
   2613   2614     1
   2613   2617     1
   2613   2639     1
   2613   2635     1
   2613   2624     1
   2613   2625     1
   2614   2618     1
   2614   2619     1
   2614   2633     1
   2614   2634     1
   2615   2617     1
   2615   2639     1
   2615   2632     1
   2615   2627     1
   2615   2628     1
   2616   2617     1
   2616   2639     1
   2616   2632     1
   2616   2627     1
   2616   2628     1
   2617   2630     1
   2617   2631     1
   2618   2639     1
   2618   2629     1
   2618   2621     1
   2618   2622     1
   2619   2639     1
   2619   2629     1
   2619   2621     1
   2619   2622     1
   2620   2639     1
   2621   2638     1
   2621   2630     1
   2621   2631     1
   2622   2638     1
   2622   2630     1
   2622   2631     1
   2623   2639     1
   2624   3994     1
   2624   2636     1
   2624   2637     1
   2625   3994     1
   2625   2636     1
   2625   2637     1
   2626   2639     1
   2627   3980     1
   2627   2633     1
   2627   2634     1
   2628   3980     1
   2628   2633     1
   2628   2634     1
   2632   3975     1
   2632   3976     1
   2633   3974     1
   2634   3974     1
   2635   3989     1
   2635   3990     1
   2636   3988     1
   2637   3988     1
   2640   2654     1
   2640   2655     1
   2640   2657     1
   2640   2658     1
   2640   2651     1
   2640   2652     1
   2641   2645     1
   2641   2646     1
   2641   2648     1
   2641   2649     1
   2641   2666     1
   2641   2667     1
   2642   2644     1
   2642   2647     1
   2642   2669     1
   2642   2665     1
   2642   2654     1
   2642   2655     1
   2643   2644     1
   2643   2647     1
   2643   2669     1
   2643   2665     1
   2643   2654     1
   2643   2655     1
   2644   2648     1
   2644   2649     1
   2644   2663     1
   2644   2664     1
   2645   2647     1
   2645   2669     1
   2645   2662     1
   2645   2657     1
   2645   2658     1
   2646   2647     1
   2646   2669     1
   2646   2662     1
   2646   2657     1
   2646   2658     1
   2647   2660     1
   2647   2661     1
   2648   2669     1
   2648   2659     1
   2648   2651     1
   2648   2652     1
   2649   2669     1
   2649   2659     1
   2649   2651     1
   2649   2652     1
   2650   2669     1
   2651   2668     1
   2651   2660     1
   2651   2661     1
   2652   2668     1
   2652   2660     1
   2652   2661     1
   2653   2669     1
   2654   4022     1
   2654   2666     1
   2654   2667     1
   2655   4022     1
   2655   2666     1
   2655   2667     1
   2656   2669     1
   2657   4008     1
   2657   2663     1
   2657   2664     1
   2658   4008     1
   2658   2663     1
   2658   2664     1
   2662   4003     1
   2662   4004     1
   2663   4002     1
   2664   4002     1
   2665   4017     1
   2665   4018     1
   2666   4016     1
   2667   4016     1
   2670   2684     1
   2670   2685     1
   2670   2687     1
   2670   2688     1
   2670   2681     1
   2670   2682     1
   2671   2675     1
   2671   2676     1
   2671   2678     1
   2671   2679     1
   2671   2696     1
   2671   2697     1
   2672   2674     1
   2672   2677     1
   2672   2699     1
   2672   2695     1
   2672   2684     1
   2672   2685     1
   2673   2674     1
   2673   2677     1
   2673   2699     1
   2673   2695     1
   2673   2684     1
   2673   2685     1
   2674   2678     1
   2674   2679     1
   2674   2693     1
   2674   2694     1
   2675   2677     1
   2675   2699     1
   2675   2692     1
   2675   2687     1
   2675   2688     1
   2676   2677     1
   2676   2699     1
   2676   2692     1
   2676   2687     1
   2676   2688     1
   2677   2690     1
   2677   2691     1
   2678   2699     1
   2678   2689     1
   2678   2681     1
   2678   2682     1
   2679   2699     1
   2679   2689     1
   2679   2681     1
   2679   2682     1
   2680   2699     1
   2681   2698     1
   2681   2690     1
   2681   2691     1
   2682   2698     1
   2682   2690     1
   2682   2691     1
   2683   2699     1
   2684   4050     1
   2684   2696     1
   2684   2697     1
   2685   4050     1
   2685   2696     1
   2685   2697     1
   2686   2699     1
   2687   4036     1
   2687   2693     1
   2687   2694     1
   2688   4036     1
   2688   2693     1
   2688   2694     1
   2692   4031     1
   2692   4032     1
   2693   4030     1
   2694   4030     1
   2695   4045     1
   2695   4046     1
   2696   4044     1
   2697   4044     1
   2700   2714     1
   2700   2715     1
   2700   2717     1
   2700   2718     1
   2700   2711     1
   2700   2712     1
   2701   2705     1
   2701   2706     1
   2701   2708     1
   2701   2709     1
   2701   2726     1
   2701   2727     1
   2702   2704     1
   2702   2707     1
   2702   2729     1
   2702   2725     1
   2702   2714     1
   2702   2715     1
   2703   2704     1
   2703   2707     1
   2703   2729     1
   2703   2725     1
   2703   2714     1
   2703   2715     1
   2704   2708     1
   2704   2709     1
   2704   2723     1
   2704   2724     1
   2705   2707     1
   2705   2729     1
   2705   2722     1
   2705   2717     1
   2705   2718     1
   2706   2707     1
   2706   2729     1
   2706   2722     1
   2706   2717     1
   2706   2718     1
   2707   2720     1
   2707   2721     1
   2708   2729     1
   2708   2719     1
   2708   2711     1
   2708   2712     1
   2709   2729     1
   2709   2719     1
   2709   2711     1
   2709   2712     1
   2710   2729     1
   2711   2728     1
   2711   2720     1
   2711   2721     1
   2712   2728     1
   2712   2720     1
   2712   2721     1
   2713   2729     1
   2714   4078     1
   2714   2726     1
   2714   2727     1
   2715   4078     1
   2715   2726     1
   2715   2727     1
   2716   2729     1
   2717   4064     1
   2717   2723     1
   2717   2724     1
   2718   4064     1
   2718   2723     1
   2718   2724     1
   2722   4059     1
   2722   4060     1
   2723   4058     1
   2724   4058     1
   2725   4073     1
   2725   4074     1
   2726   4072     1
   2727   4072     1
   2730   2744     1
   2730   2745     1
   2730   2747     1
   2730   2748     1
   2730   2741     1
   2730   2742     1
   2731   2735     1
   2731   2736     1
   2731   2738     1
   2731   2739     1
   2731   2756     1
   2731   2757     1
   2732   2734     1
   2732   2737     1
   2732   2759     1
   2732   2755     1
   2732   2744     1
   2732   2745     1
   2733   2734     1
   2733   2737     1
   2733   2759     1
   2733   2755     1
   2733   2744     1
   2733   2745     1
   2734   2738     1
   2734   2739     1
   2734   2753     1
   2734   2754     1
   2735   2737     1
   2735   2759     1
   2735   2752     1
   2735   2747     1
   2735   2748     1
   2736   2737     1
   2736   2759     1
   2736   2752     1
   2736   2747     1
   2736   2748     1
   2737   2750     1
   2737   2751     1
   2738   2759     1
   2738   2749     1
   2738   2741     1
   2738   2742     1
   2739   2759     1
   2739   2749     1
   2739   2741     1
   2739   2742     1
   2740   2759     1
   2741   2758     1
   2741   2750     1
   2741   2751     1
   2742   2758     1
   2742   2750     1
   2742   2751     1
   2743   2759     1
   2744   4106     1
   2744   2756     1
   2744   2757     1
   2745   4106     1
   2745   2756     1
   2745   2757     1
   2746   2759     1
   2747   4092     1
   2747   2753     1
   2747   2754     1
   2748   4092     1
   2748   2753     1
   2748   2754     1
   2752   4087     1
   2752   4088     1
   2753   4086     1
   2754   4086     1
   2755   4101     1
   2755   4102     1
   2756   4100     1
   2757   4100     1
   2760   2774     1
   2760   2775     1
   2760   2777     1
   2760   2778     1
   2760   2771     1
   2760   2772     1
   2761   2765     1
   2761   2766     1
   2761   2768     1
   2761   2769     1
   2761   2786     1
   2761   2787     1
   2762   2764     1
   2762   2767     1
   2762   2789     1
   2762   2785     1
   2762   2774     1
   2762   2775     1
   2763   2764     1
   2763   2767     1
   2763   2789     1
   2763   2785     1
   2763   2774     1
   2763   2775     1
   2764   2768     1
   2764   2769     1
   2764   2783     1
   2764   2784     1
   2765   2767     1
   2765   2789     1
   2765   2782     1
   2765   2777     1
   2765   2778     1
   2766   2767     1
   2766   2789     1
   2766   2782     1
   2766   2777     1
   2766   2778     1
   2767   2780     1
   2767   2781     1
   2768   2789     1
   2768   2779     1
   2768   2771     1
   2768   2772     1
   2769   2789     1
   2769   2779     1
   2769   2771     1
   2769   2772     1
   2770   2789     1
   2771   2788     1
   2771   2780     1
   2771   2781     1
   2772   2788     1
   2772   2780     1
   2772   2781     1
   2773   2789     1
   2774   4134     1
   2774   2786     1
   2774   2787     1
   2775   4134     1
   2775   2786     1
   2775   2787     1
   2776   2789     1
   2777   4120     1
   2777   2783     1
   2777   2784     1
   2778   4120     1
   2778   2783     1
   2778   2784     1
   2782   4115     1
   2782   4116     1
   2783   4114     1
   2784   4114     1
   2785   4129     1
   2785   4130     1
   2786   4128     1
   2787   4128     1
   2790   2804     1
   2790   2805     1
   2790   2807     1
   2790   2808     1
   2790   2801     1
   2790   2802     1
   2791   2795     1
   2791   2796     1
   2791   2798     1
   2791   2799     1
   2791   2816     1
   2791   2817     1
   2792   2794     1
   2792   2797     1
   2792   2819     1
   2792   2815     1
   2792   2804     1
   2792   2805     1
   2793   2794     1
   2793   2797     1
   2793   2819     1
   2793   2815     1
   2793   2804     1
   2793   2805     1
   2794   2798     1
   2794   2799     1
   2794   2813     1
   2794   2814     1
   2795   2797     1
   2795   2819     1
   2795   2812     1
   2795   2807     1
   2795   2808     1
   2796   2797     1
   2796   2819     1
   2796   2812     1
   2796   2807     1
   2796   2808     1
   2797   2810     1
   2797   2811     1
   2798   2819     1
   2798   2809     1
   2798   2801     1
   2798   2802     1
   2799   2819     1
   2799   2809     1
   2799   2801     1
   2799   2802     1
   2800   2819     1
   2801   2818     1
   2801   2810     1
   2801   2811     1
   2802   2818     1
   2802   2810     1
   2802   2811     1
   2803   2819     1
   2804   4162     1
   2804   2816     1
   2804   2817     1
   2805   4162     1
   2805   2816     1
   2805   2817     1
   2806   2819     1
   2807   4148     1
   2807   2813     1
   2807   2814     1
   2808   4148     1
   2808   2813     1
   2808   2814     1
   2812   4143     1
   2812   4144     1
   2813   4142     1
   2814   4142     1
   2815   4157     1
   2815   4158     1
   2816   4156     1
   2817   4156     1
   2820   2827     1
   2820   2828     1
   2821   2826     1
   2821   2824     1
   2821   2825     1
   2821   2830     1
   2821   2831     1
   2821   2833     1
   2822   2826     1
   2822   2824     1
   2822   2825     1
   2822   2830     1
   2822   2831     1
   2822   2833     1
   2823   2830     1
   2823   2831     1
   2823   2833     1
   2824   2829     1
   2824   2832     1
   2824   2827     1
   2824   2828     1
   2825   2829     1
   2825   2832     1
   2825   2827     1
   2825   2828     1
   2834   2841     1
   2834   2842     1
   2835   2840     1
   2835   2838     1
   2835   2839     1
   2835   2844     1
   2835   2845     1
   2835   2847     1
   2836   2840     1
   2836   2838     1
   2836   2839     1
   2836   2844     1
   2836   2845     1
   2836   2847     1
   2837   2844     1
   2837   2845     1
   2837   2847     1
   2838   2846     1
   2838   2841     1
   2838   2842     1
   2838   2843     1
   2839   2846     1
   2839   2841     1
   2839   2842     1
   2839   2843     1
   2848   2855     1
   2848   2856     1
   2849   2854     1
   2849   2852     1
   2849   2853     1
   2849   2858     1
   2849   2859     1
   2849   2861     1
   2850   2854     1
   2850   2852     1
   2850   2853     1
   2850   2858     1
   2850   2859     1
   2850   2861     1
   2851   2858     1
   2851   2859     1
   2851   2861     1
   2852   2857     1
   2852   2860     1
   2852   2855     1
   2852   2856     1
   2853   2857     1
   2853   2860     1
   2853   2855     1
   2853   2856     1
   2862   2869     1
   2862   2870     1
   2863   2868     1
   2863   2866     1
   2863   2867     1
   2863   2872     1
   2863   2873     1
   2863   2875     1
   2864   2868     1
   2864   2866     1
   2864   2867     1
   2864   2872     1
   2864   2873     1
   2864   2875     1
   2865   2872     1
   2865   2873     1
   2865   2875     1
   2866   2874     1
   2866   2869     1
   2866   2870     1
   2866   2871     1
   2867   2874     1
   2867   2869     1
   2867   2870     1
   2867   2871     1
   2876   2883     1
   2876   2884     1
   2877   2882     1
   2877   2880     1
   2877   2881     1
   2877   2886     1
   2877   2887     1
   2877   2889     1
   2878   2882     1
   2878   2880     1
   2878   2881     1
   2878   2886     1
   2878   2887     1
   2878   2889     1
   2879   2886     1
   2879   2887     1
   2879   2889     1
   2880   2885     1
   2880   2888     1
   2880   2883     1
   2880   2884     1
   2881   2885     1
   2881   2888     1
   2881   2883     1
   2881   2884     1
   2890   2897     1
   2890   2898     1
   2891   2896     1
   2891   2894     1
   2891   2895     1
   2891   2900     1
   2891   2901     1
   2891   2903     1
   2892   2896     1
   2892   2894     1
   2892   2895     1
   2892   2900     1
   2892   2901     1
   2892   2903     1
   2893   2900     1
   2893   2901     1
   2893   2903     1
   2894   2902     1
   2894   2897     1
   2894   2898     1
   2894   2899     1
   2895   2902     1
   2895   2897     1
   2895   2898     1
   2895   2899     1
   2904   2911     1
   2904   2912     1
   2905   2910     1
   2905   2908     1
   2905   2909     1
   2905   2914     1
   2905   2915     1
   2905   2917     1
   2906   2910     1
   2906   2908     1
   2906   2909     1
   2906   2914     1
   2906   2915     1
   2906   2917     1
   2907   2914     1
   2907   2915     1
   2907   2917     1
   2908   2913     1
   2908   2916     1
   2908   2911     1
   2908   2912     1
   2909   2913     1
   2909   2916     1
   2909   2911     1
   2909   2912     1
   2918   2925     1
   2918   2926     1
   2919   2924     1
   2919   2922     1
   2919   2923     1
   2919   2928     1
   2919   2929     1
   2919   2931     1
   2920   2924     1
   2920   2922     1
   2920   2923     1
   2920   2928     1
   2920   2929     1
   2920   2931     1
   2921   2928     1
   2921   2929     1
   2921   2931     1
   2922   2930     1
   2922   2925     1
   2922   2926     1
   2922   2927     1
   2923   2930     1
   2923   2925     1
   2923   2926     1
   2923   2927     1
   2932   2939     1
   2932   2940     1
   2933   2938     1
   2933   2936     1
   2933   2937     1
   2933   2942     1
   2933   2943     1
   2933   2945     1
   2934   2938     1
   2934   2936     1
   2934   2937     1
   2934   2942     1
   2934   2943     1
   2934   2945     1
   2935   2942     1
   2935   2943     1
   2935   2945     1
   2936   2941     1
   2936   2944     1
   2936   2939     1
   2936   2940     1
   2937   2941     1
   2937   2944     1
   2937   2939     1
   2937   2940     1
   2946   2953     1
   2946   2954     1
   2947   2952     1
   2947   2950     1
   2947   2951     1
   2947   2956     1
   2947   2957     1
   2947   2959     1
   2948   2952     1
   2948   2950     1
   2948   2951     1
   2948   2956     1
   2948   2957     1
   2948   2959     1
   2949   2956     1
   2949   2957     1
   2949   2959     1
   2950   2958     1
   2950   2953     1
   2950   2954     1
   2950   2955     1
   2951   2958     1
   2951   2953     1
   2951   2954     1
   2951   2955     1
   2960   2967     1
   2960   2968     1
   2961   2966     1
   2961   2964     1
   2961   2965     1
   2961   2970     1
   2961   2971     1
   2961   2973     1
   2962   2966     1
   2962   2964     1
   2962   2965     1
   2962   2970     1
   2962   2971     1
   2962   2973     1
   2963   2970     1
   2963   2971     1
   2963   2973     1
   2964   2969     1
   2964   2972     1
   2964   2967     1
   2964   2968     1
   2965   2969     1
   2965   2972     1
   2965   2967     1
   2965   2968     1
   2974   2981     1
   2974   2982     1
   2975   2980     1
   2975   2978     1
   2975   2979     1
   2975   2984     1
   2975   2985     1
   2975   2987     1
   2976   2980     1
   2976   2978     1
   2976   2979     1
   2976   2984     1
   2976   2985     1
   2976   2987     1
   2977   2984     1
   2977   2985     1
   2977   2987     1
   2978   2986     1
   2978   2981     1
   2978   2982     1
   2978   2983     1
   2979   2986     1
   2979   2981     1
   2979   2982     1
   2979   2983     1
   2988   2995     1
   2988   2996     1
   2989   2994     1
   2989   2992     1
   2989   2993     1
   2989   2998     1
   2989   2999     1
   2989   3001     1
   2990   2994     1
   2990   2992     1
   2990   2993     1
   2990   2998     1
   2990   2999     1
   2990   3001     1
   2991   2998     1
   2991   2999     1
   2991   3001     1
   2992   2997     1
   2992   3000     1
   2992   2995     1
   2992   2996     1
   2993   2997     1
   2993   3000     1
   2993   2995     1
   2993   2996     1
   3002   3009     1
   3002   3010     1
   3003   3008     1
   3003   3006     1
   3003   3007     1
   3003   3012     1
   3003   3013     1
   3003   3015     1
   3004   3008     1
   3004   3006     1
   3004   3007     1
   3004   3012     1
   3004   3013     1
   3004   3015     1
   3005   3012     1
   3005   3013     1
   3005   3015     1
   3006   3014     1
   3006   3009     1
   3006   3010     1
   3006   3011     1
   3007   3014     1
   3007   3009     1
   3007   3010     1
   3007   3011     1
   3016   3023     1
   3016   3024     1
   3017   3022     1
   3017   3020     1
   3017   3021     1
   3017   3026     1
   3017   3027     1
   3017   3029     1
   3018   3022     1
   3018   3020     1
   3018   3021     1
   3018   3026     1
   3018   3027     1
   3018   3029     1
   3019   3026     1
   3019   3027     1
   3019   3029     1
   3020   3025     1
   3020   3028     1
   3020   3023     1
   3020   3024     1
   3021   3025     1
   3021   3028     1
   3021   3023     1
   3021   3024     1
   3030   3037     1
   3030   3038     1
   3031   3036     1
   3031   3034     1
   3031   3035     1
   3031   3040     1
   3031   3041     1
   3031   3043     1
   3032   3036     1
   3032   3034     1
   3032   3035     1
   3032   3040     1
   3032   3041     1
   3032   3043     1
   3033   3040     1
   3033   3041     1
   3033   3043     1
   3034   3042     1
   3034   3037     1
   3034   3038     1
   3034   3039     1
   3035   3042     1
   3035   3037     1
   3035   3038     1
   3035   3039     1
   3044   3051     1
   3044   3052     1
   3045   3050     1
   3045   3048     1
   3045   3049     1
   3045   3054     1
   3045   3055     1
   3045   3057     1
   3046   3050     1
   3046   3048     1
   3046   3049     1
   3046   3054     1
   3046   3055     1
   3046   3057     1
   3047   3054     1
   3047   3055     1
   3047   3057     1
   3048   3053     1
   3048   3056     1
   3048   3051     1
   3048   3052     1
   3049   3053     1
   3049   3056     1
   3049   3051     1
   3049   3052     1
   3058   3065     1
   3058   3066     1
   3059   3064     1
   3059   3062     1
   3059   3063     1
   3059   3068     1
   3059   3069     1
   3059   3071     1
   3060   3064     1
   3060   3062     1
   3060   3063     1
   3060   3068     1
   3060   3069     1
   3060   3071     1
   3061   3068     1
   3061   3069     1
   3061   3071     1
   3062   3070     1
   3062   3065     1
   3062   3066     1
   3062   3067     1
   3063   3070     1
   3063   3065     1
   3063   3066     1
   3063   3067     1
   3072   3079     1
   3072   3080     1
   3073   3078     1
   3073   3076     1
   3073   3077     1
   3073   3082     1
   3073   3083     1
   3073   3085     1
   3074   3078     1
   3074   3076     1
   3074   3077     1
   3074   3082     1
   3074   3083     1
   3074   3085     1
   3075   3082     1
   3075   3083     1
   3075   3085     1
   3076   3081     1
   3076   3084     1
   3076   3079     1
   3076   3080     1
   3077   3081     1
   3077   3084     1
   3077   3079     1
   3077   3080     1
   3086   3093     1
   3086   3094     1
   3087   3092     1
   3087   3090     1
   3087   3091     1
   3087   3096     1
   3087   3097     1
   3087   3099     1
   3088   3092     1
   3088   3090     1
   3088   3091     1
   3088   3096     1
   3088   3097     1
   3088   3099     1
   3089   3096     1
   3089   3097     1
   3089   3099     1
   3090   3098     1
   3090   3093     1
   3090   3094     1
   3090   3095     1
   3091   3098     1
   3091   3093     1
   3091   3094     1
   3091   3095     1
   3100   3107     1
   3100   3108     1
   3101   3106     1
   3101   3104     1
   3101   3105     1
   3101   3110     1
   3101   3111     1
   3101   3113     1
   3102   3106     1
   3102   3104     1
   3102   3105     1
   3102   3110     1
   3102   3111     1
   3102   3113     1
   3103   3110     1
   3103   3111     1
   3103   3113     1
   3104   3109     1
   3104   3112     1
   3104   3107     1
   3104   3108     1
   3105   3109     1
   3105   3112     1
   3105   3107     1
   3105   3108     1
   3114   3121     1
   3114   3122     1
   3115   3120     1
   3115   3118     1
   3115   3119     1
   3115   3124     1
   3115   3125     1
   3115   3127     1
   3116   3120     1
   3116   3118     1
   3116   3119     1
   3116   3124     1
   3116   3125     1
   3116   3127     1
   3117   3124     1
   3117   3125     1
   3117   3127     1
   3118   3126     1
   3118   3121     1
   3118   3122     1
   3118   3123     1
   3119   3126     1
   3119   3121     1
   3119   3122     1
   3119   3123     1
   3128   3135     1
   3128   3136     1
   3129   3134     1
   3129   3132     1
   3129   3133     1
   3129   3138     1
   3129   3139     1
   3129   3141     1
   3130   3134     1
   3130   3132     1
   3130   3133     1
   3130   3138     1
   3130   3139     1
   3130   3141     1
   3131   3138     1
   3131   3139     1
   3131   3141     1
   3132   3137     1
   3132   3140     1
   3132   3135     1
   3132   3136     1
   3133   3137     1
   3133   3140     1
   3133   3135     1
   3133   3136     1
   3142   3149     1
   3142   3150     1
   3143   3148     1
   3143   3146     1
   3143   3147     1
   3143   3152     1
   3143   3153     1
   3143   3155     1
   3144   3148     1
   3144   3146     1
   3144   3147     1
   3144   3152     1
   3144   3153     1
   3144   3155     1
   3145   3152     1
   3145   3153     1
   3145   3155     1
   3146   3154     1
   3146   3149     1
   3146   3150     1
   3146   3151     1
   3147   3154     1
   3147   3149     1
   3147   3150     1
   3147   3151     1
   3156   3163     1
   3156   3164     1
   3157   3162     1
   3157   3160     1
   3157   3161     1
   3157   3166     1
   3157   3167     1
   3157   3169     1
   3158   3162     1
   3158   3160     1
   3158   3161     1
   3158   3166     1
   3158   3167     1
   3158   3169     1
   3159   3166     1
   3159   3167     1
   3159   3169     1
   3160   3165     1
   3160   3168     1
   3160   3163     1
   3160   3164     1
   3161   3165     1
   3161   3168     1
   3161   3163     1
   3161   3164     1
   3170   3177     1
   3170   3178     1
   3171   3176     1
   3171   3174     1
   3171   3175     1
   3171   3180     1
   3171   3181     1
   3171   3183     1
   3172   3176     1
   3172   3174     1
   3172   3175     1
   3172   3180     1
   3172   3181     1
   3172   3183     1
   3173   3180     1
   3173   3181     1
   3173   3183     1
   3174   3182     1
   3174   3177     1
   3174   3178     1
   3174   3179     1
   3175   3182     1
   3175   3177     1
   3175   3178     1
   3175   3179     1
   3184   3191     1
   3184   3192     1
   3185   3190     1
   3185   3188     1
   3185   3189     1
   3185   3194     1
   3185   3195     1
   3185   3197     1
   3186   3190     1
   3186   3188     1
   3186   3189     1
   3186   3194     1
   3186   3195     1
   3186   3197     1
   3187   3194     1
   3187   3195     1
   3187   3197     1
   3188   3193     1
   3188   3196     1
   3188   3191     1
   3188   3192     1
   3189   3193     1
   3189   3196     1
   3189   3191     1
   3189   3192     1
   3198   3205     1
   3198   3206     1
   3199   3204     1
   3199   3202     1
   3199   3203     1
   3199   3208     1
   3199   3209     1
   3199   3211     1
   3200   3204     1
   3200   3202     1
   3200   3203     1
   3200   3208     1
   3200   3209     1
   3200   3211     1
   3201   3208     1
   3201   3209     1
   3201   3211     1
   3202   3210     1
   3202   3205     1
   3202   3206     1
   3202   3207     1
   3203   3210     1
   3203   3205     1
   3203   3206     1
   3203   3207     1
   3212   3219     1
   3212   3220     1
   3213   3218     1
   3213   3216     1
   3213   3217     1
   3213   3222     1
   3213   3223     1
   3213   3225     1
   3214   3218     1
   3214   3216     1
   3214   3217     1
   3214   3222     1
   3214   3223     1
   3214   3225     1
   3215   3222     1
   3215   3223     1
   3215   3225     1
   3216   3221     1
   3216   3224     1
   3216   3219     1
   3216   3220     1
   3217   3221     1
   3217   3224     1
   3217   3219     1
   3217   3220     1
   3226   3233     1
   3226   3234     1
   3227   3232     1
   3227   3230     1
   3227   3231     1
   3227   3236     1
   3227   3237     1
   3227   3239     1
   3228   3232     1
   3228   3230     1
   3228   3231     1
   3228   3236     1
   3228   3237     1
   3228   3239     1
   3229   3236     1
   3229   3237     1
   3229   3239     1
   3230   3238     1
   3230   3233     1
   3230   3234     1
   3230   3235     1
   3231   3238     1
   3231   3233     1
   3231   3234     1
   3231   3235     1
   3240   3247     1
   3240   3248     1
   3241   3246     1
   3241   3244     1
   3241   3245     1
   3241   3250     1
   3241   3251     1
   3241   3253     1
   3242   3246     1
   3242   3244     1
   3242   3245     1
   3242   3250     1
   3242   3251     1
   3242   3253     1
   3243   3250     1
   3243   3251     1
   3243   3253     1
   3244   3249     1
   3244   3252     1
   3244   3247     1
   3244   3248     1
   3245   3249     1
   3245   3252     1
   3245   3247     1
   3245   3248     1
   3254   3261     1
   3254   3262     1
   3255   3260     1
   3255   3258     1
   3255   3259     1
   3255   3264     1
   3255   3265     1
   3255   3267     1
   3256   3260     1
   3256   3258     1
   3256   3259     1
   3256   3264     1
   3256   3265     1
   3256   3267     1
   3257   3264     1
   3257   3265     1
   3257   3267     1
   3258   3266     1
   3258   3261     1
   3258   3262     1
   3258   3263     1
   3259   3266     1
   3259   3261     1
   3259   3262     1
   3259   3263     1
   3268   3275     1
   3268   3276     1
   3269   3274     1
   3269   3272     1
   3269   3273     1
   3269   3278     1
   3269   3279     1
   3269   3281     1
   3270   3274     1
   3270   3272     1
   3270   3273     1
   3270   3278     1
   3270   3279     1
   3270   3281     1
   3271   3278     1
   3271   3279     1
   3271   3281     1
   3272   3277     1
   3272   3280     1
   3272   3275     1
   3272   3276     1
   3273   3277     1
   3273   3280     1
   3273   3275     1
   3273   3276     1
   3282   3289     1
   3282   3290     1
   3283   3288     1
   3283   3286     1
   3283   3287     1
   3283   3292     1
   3283   3293     1
   3283   3295     1
   3284   3288     1
   3284   3286     1
   3284   3287     1
   3284   3292     1
   3284   3293     1
   3284   3295     1
   3285   3292     1
   3285   3293     1
   3285   3295     1
   3286   3294     1
   3286   3289     1
   3286   3290     1
   3286   3291     1
   3287   3294     1
   3287   3289     1
   3287   3290     1
   3287   3291     1
   3296   3303     1
   3296   3304     1
   3297   3302     1
   3297   3300     1
   3297   3301     1
   3297   3306     1
   3297   3307     1
   3297   3309     1
   3298   3302     1
   3298   3300     1
   3298   3301     1
   3298   3306     1
   3298   3307     1
   3298   3309     1
   3299   3306     1
   3299   3307     1
   3299   3309     1
   3300   3305     1
   3300   3308     1
   3300   3303     1
   3300   3304     1
   3301   3305     1
   3301   3308     1
   3301   3303     1
   3301   3304     1
   3310   3317     1
   3310   3318     1
   3311   3316     1
   3311   3314     1
   3311   3315     1
   3311   3320     1
   3311   3321     1
   3311   3323     1
   3312   3316     1
   3312   3314     1
   3312   3315     1
   3312   3320     1
   3312   3321     1
   3312   3323     1
   3313   3320     1
   3313   3321     1
   3313   3323     1
   3314   3322     1
   3314   3317     1
   3314   3318     1
   3314   3319     1
   3315   3322     1
   3315   3317     1
   3315   3318     1
   3315   3319     1
   3324   3331     1
   3324   3332     1
   3325   3330     1
   3325   3328     1
   3325   3329     1
   3325   3334     1
   3325   3335     1
   3325   3337     1
   3326   3330     1
   3326   3328     1
   3326   3329     1
   3326   3334     1
   3326   3335     1
   3326   3337     1
   3327   3334     1
   3327   3335     1
   3327   3337     1
   3328   3333     1
   3328   3336     1
   3328   3331     1
   3328   3332     1
   3329   3333     1
   3329   3336     1
   3329   3331     1
   3329   3332     1
   3338   3345     1
   3338   3346     1
   3339   3344     1
   3339   3342     1
   3339   3343     1
   3339   3348     1
   3339   3349     1
   3339   3351     1
   3340   3344     1
   3340   3342     1
   3340   3343     1
   3340   3348     1
   3340   3349     1
   3340   3351     1
   3341   3348     1
   3341   3349     1
   3341   3351     1
   3342   3350     1
   3342   3345     1
   3342   3346     1
   3342   3347     1
   3343   3350     1
   3343   3345     1
   3343   3346     1
   3343   3347     1
   3352   3359     1
   3352   3360     1
   3353   3358     1
   3353   3356     1
   3353   3357     1
   3353   3362     1
   3353   3363     1
   3353   3365     1
   3354   3358     1
   3354   3356     1
   3354   3357     1
   3354   3362     1
   3354   3363     1
   3354   3365     1
   3355   3362     1
   3355   3363     1
   3355   3365     1
   3356   3361     1
   3356   3364     1
   3356   3359     1
   3356   3360     1
   3357   3361     1
   3357   3364     1
   3357   3359     1
   3357   3360     1
   3366   3373     1
   3366   3374     1
   3367   3372     1
   3367   3370     1
   3367   3371     1
   3367   3376     1
   3367   3377     1
   3367   3379     1
   3368   3372     1
   3368   3370     1
   3368   3371     1
   3368   3376     1
   3368   3377     1
   3368   3379     1
   3369   3376     1
   3369   3377     1
   3369   3379     1
   3370   3378     1
   3370   3373     1
   3370   3374     1
   3370   3375     1
   3371   3378     1
   3371   3373     1
   3371   3374     1
   3371   3375     1
   3380   3387     1
   3380   3388     1
   3381   3386     1
   3381   3384     1
   3381   3385     1
   3381   3390     1
   3381   3391     1
   3381   3393     1
   3382   3386     1
   3382   3384     1
   3382   3385     1
   3382   3390     1
   3382   3391     1
   3382   3393     1
   3383   3390     1
   3383   3391     1
   3383   3393     1
   3384   3389     1
   3384   3392     1
   3384   3387     1
   3384   3388     1
   3385   3389     1
   3385   3392     1
   3385   3387     1
   3385   3388     1
   3394   3401     1
   3394   3402     1
   3395   3400     1
   3395   3398     1
   3395   3399     1
   3395   3404     1
   3395   3405     1
   3395   3407     1
   3396   3400     1
   3396   3398     1
   3396   3399     1
   3396   3404     1
   3396   3405     1
   3396   3407     1
   3397   3404     1
   3397   3405     1
   3397   3407     1
   3398   3406     1
   3398   3401     1
   3398   3402     1
   3398   3403     1
   3399   3406     1
   3399   3401     1
   3399   3402     1
   3399   3403     1
   3408   3415     1
   3408   3416     1
   3409   3414     1
   3409   3412     1
   3409   3413     1
   3409   3418     1
   3409   3419     1
   3409   3421     1
   3410   3414     1
   3410   3412     1
   3410   3413     1
   3410   3418     1
   3410   3419     1
   3410   3421     1
   3411   3418     1
   3411   3419     1
   3411   3421     1
   3412   3417     1
   3412   3420     1
   3412   3415     1
   3412   3416     1
   3413   3417     1
   3413   3420     1
   3413   3415     1
   3413   3416     1
   3422   3429     1
   3422   3430     1
   3423   3428     1
   3423   3426     1
   3423   3427     1
   3423   3432     1
   3423   3433     1
   3423   3435     1
   3424   3428     1
   3424   3426     1
   3424   3427     1
   3424   3432     1
   3424   3433     1
   3424   3435     1
   3425   3432     1
   3425   3433     1
   3425   3435     1
   3426   3434     1
   3426   3429     1
   3426   3430     1
   3426   3431     1
   3427   3434     1
   3427   3429     1
   3427   3430     1
   3427   3431     1
   3436   3443     1
   3436   3444     1
   3437   3442     1
   3437   3440     1
   3437   3441     1
   3437   3446     1
   3437   3447     1
   3437   3449     1
   3438   3442     1
   3438   3440     1
   3438   3441     1
   3438   3446     1
   3438   3447     1
   3438   3449     1
   3439   3446     1
   3439   3447     1
   3439   3449     1
   3440   3445     1
   3440   3448     1
   3440   3443     1
   3440   3444     1
   3441   3445     1
   3441   3448     1
   3441   3443     1
   3441   3444     1
   3450   3457     1
   3450   3458     1
   3451   3456     1
   3451   3454     1
   3451   3455     1
   3451   3460     1
   3451   3461     1
   3451   3463     1
   3452   3456     1
   3452   3454     1
   3452   3455     1
   3452   3460     1
   3452   3461     1
   3452   3463     1
   3453   3460     1
   3453   3461     1
   3453   3463     1
   3454   3462     1
   3454   3457     1
   3454   3458     1
   3454   3459     1
   3455   3462     1
   3455   3457     1
   3455   3458     1
   3455   3459     1
   3464   3471     1
   3464   3472     1
   3465   3470     1
   3465   3468     1
   3465   3469     1
   3465   3474     1
   3465   3475     1
   3465   3477     1
   3466   3470     1
   3466   3468     1
   3466   3469     1
   3466   3474     1
   3466   3475     1
   3466   3477     1
   3467   3474     1
   3467   3475     1
   3467   3477     1
   3468   3473     1
   3468   3476     1
   3468   3471     1
   3468   3472     1
   3469   3473     1
   3469   3476     1
   3469   3471     1
   3469   3472     1
   3478   3485     1
   3478   3486     1
   3479   3484     1
   3479   3482     1
   3479   3483     1
   3479   3488     1
   3479   3489     1
   3479   3491     1
   3480   3484     1
   3480   3482     1
   3480   3483     1
   3480   3488     1
   3480   3489     1
   3480   3491     1
   3481   3488     1
   3481   3489     1
   3481   3491     1
   3482   3490     1
   3482   3485     1
   3482   3486     1
   3482   3487     1
   3483   3490     1
   3483   3485     1
   3483   3486     1
   3483   3487     1
   3492   3499     1
   3492   3500     1
   3493   3498     1
   3493   3496     1
   3493   3497     1
   3493   3502     1
   3493   3503     1
   3493   3505     1
   3494   3498     1
   3494   3496     1
   3494   3497     1
   3494   3502     1
   3494   3503     1
   3494   3505     1
   3495   3502     1
   3495   3503     1
   3495   3505     1
   3496   3501     1
   3496   3504     1
   3496   3499     1
   3496   3500     1
   3497   3501     1
   3497   3504     1
   3497   3499     1
   3497   3500     1
   3506   3513     1
   3506   3514     1
   3507   3512     1
   3507   3510     1
   3507   3511     1
   3507   3516     1
   3507   3517     1
   3507   3519     1
   3508   3512     1
   3508   3510     1
   3508   3511     1
   3508   3516     1
   3508   3517     1
   3508   3519     1
   3509   3516     1
   3509   3517     1
   3509   3519     1
   3510   3518     1
   3510   3513     1
   3510   3514     1
   3510   3515     1
   3511   3518     1
   3511   3513     1
   3511   3514     1
   3511   3515     1
   3520   3527     1
   3520   3528     1
   3521   3526     1
   3521   3524     1
   3521   3525     1
   3521   3530     1
   3521   3531     1
   3521   3533     1
   3522   3526     1
   3522   3524     1
   3522   3525     1
   3522   3530     1
   3522   3531     1
   3522   3533     1
   3523   3530     1
   3523   3531     1
   3523   3533     1
   3524   3529     1
   3524   3532     1
   3524   3527     1
   3524   3528     1
   3525   3529     1
   3525   3532     1
   3525   3527     1
   3525   3528     1
   3534   3541     1
   3534   3542     1
   3535   3540     1
   3535   3538     1
   3535   3539     1
   3535   3544     1
   3535   3545     1
   3535   3547     1
   3536   3540     1
   3536   3538     1
   3536   3539     1
   3536   3544     1
   3536   3545     1
   3536   3547     1
   3537   3544     1
   3537   3545     1
   3537   3547     1
   3538   3546     1
   3538   3541     1
   3538   3542     1
   3538   3543     1
   3539   3546     1
   3539   3541     1
   3539   3542     1
   3539   3543     1
   3548   3555     1
   3548   3556     1
   3549   3554     1
   3549   3552     1
   3549   3553     1
   3549   3558     1
   3549   3559     1
   3549   3561     1
   3550   3554     1
   3550   3552     1
   3550   3553     1
   3550   3558     1
   3550   3559     1
   3550   3561     1
   3551   3558     1
   3551   3559     1
   3551   3561     1
   3552   3557     1
   3552   3560     1
   3552   3555     1
   3552   3556     1
   3553   3557     1
   3553   3560     1
   3553   3555     1
   3553   3556     1
   3562   3569     1
   3562   3570     1
   3563   3568     1
   3563   3566     1
   3563   3567     1
   3563   3572     1
   3563   3573     1
   3563   3575     1
   3564   3568     1
   3564   3566     1
   3564   3567     1
   3564   3572     1
   3564   3573     1
   3564   3575     1
   3565   3572     1
   3565   3573     1
   3565   3575     1
   3566   3574     1
   3566   3569     1
   3566   3570     1
   3566   3571     1
   3567   3574     1
   3567   3569     1
   3567   3570     1
   3567   3571     1
   3576   3583     1
   3576   3584     1
   3577   3582     1
   3577   3580     1
   3577   3581     1
   3577   3586     1
   3577   3587     1
   3577   3589     1
   3578   3582     1
   3578   3580     1
   3578   3581     1
   3578   3586     1
   3578   3587     1
   3578   3589     1
   3579   3586     1
   3579   3587     1
   3579   3589     1
   3580   3585     1
   3580   3588     1
   3580   3583     1
   3580   3584     1
   3581   3585     1
   3581   3588     1
   3581   3583     1
   3581   3584     1
   3590   3597     1
   3590   3598     1
   3591   3596     1
   3591   3594     1
   3591   3595     1
   3591   3600     1
   3591   3601     1
   3591   3603     1
   3592   3596     1
   3592   3594     1
   3592   3595     1
   3592   3600     1
   3592   3601     1
   3592   3603     1
   3593   3600     1
   3593   3601     1
   3593   3603     1
   3594   3602     1
   3594   3597     1
   3594   3598     1
   3594   3599     1
   3595   3602     1
   3595   3597     1
   3595   3598     1
   3595   3599     1
   3604   3611     1
   3604   3612     1
   3605   3610     1
   3605   3608     1
   3605   3609     1
   3605   3614     1
   3605   3615     1
   3605   3617     1
   3606   3610     1
   3606   3608     1
   3606   3609     1
   3606   3614     1
   3606   3615     1
   3606   3617     1
   3607   3614     1
   3607   3615     1
   3607   3617     1
   3608   3613     1
   3608   3616     1
   3608   3611     1
   3608   3612     1
   3609   3613     1
   3609   3616     1
   3609   3611     1
   3609   3612     1
   3618   3625     1
   3618   3626     1
   3619   3624     1
   3619   3622     1
   3619   3623     1
   3619   3628     1
   3619   3629     1
   3619   3631     1
   3620   3624     1
   3620   3622     1
   3620   3623     1
   3620   3628     1
   3620   3629     1
   3620   3631     1
   3621   3628     1
   3621   3629     1
   3621   3631     1
   3622   3630     1
   3622   3625     1
   3622   3626     1
   3622   3627     1
   3623   3630     1
   3623   3625     1
   3623   3626     1
   3623   3627     1
   3632   3639     1
   3632   3640     1
   3633   3638     1
   3633   3636     1
   3633   3637     1
   3633   3642     1
   3633   3643     1
   3633   3645     1
   3634   3638     1
   3634   3636     1
   3634   3637     1
   3634   3642     1
   3634   3643     1
   3634   3645     1
   3635   3642     1
   3635   3643     1
   3635   3645     1
   3636   3641     1
   3636   3644     1
   3636   3639     1
   3636   3640     1
   3637   3641     1
   3637   3644     1
   3637   3639     1
   3637   3640     1
   3646   3653     1
   3646   3654     1
   3647   3652     1
   3647   3650     1
   3647   3651     1
   3647   3656     1
   3647   3657     1
   3647   3659     1
   3648   3652     1
   3648   3650     1
   3648   3651     1
   3648   3656     1
   3648   3657     1
   3648   3659     1
   3649   3656     1
   3649   3657     1
   3649   3659     1
   3650   3658     1
   3650   3653     1
   3650   3654     1
   3650   3655     1
   3651   3658     1
   3651   3653     1
   3651   3654     1
   3651   3655     1
   3660   3667     1
   3660   3668     1
   3661   3666     1
   3661   3664     1
   3661   3665     1
   3661   3670     1
   3661   3671     1
   3661   3673     1
   3662   3666     1
   3662   3664     1
   3662   3665     1
   3662   3670     1
   3662   3671     1
   3662   3673     1
   3663   3670     1
   3663   3671     1
   3663   3673     1
   3664   3669     1
   3664   3672     1
   3664   3667     1
   3664   3668     1
   3665   3669     1
   3665   3672     1
   3665   3667     1
   3665   3668     1
   3674   3681     1
   3674   3682     1
   3675   3680     1
   3675   3678     1
   3675   3679     1
   3675   3684     1
   3675   3685     1
   3675   3687     1
   3676   3680     1
   3676   3678     1
   3676   3679     1
   3676   3684     1
   3676   3685     1
   3676   3687     1
   3677   3684     1
   3677   3685     1
   3677   3687     1
   3678   3686     1
   3678   3681     1
   3678   3682     1
   3678   3683     1
   3679   3686     1
   3679   3681     1
   3679   3682     1
   3679   3683     1
   3688   3695     1
   3688   3696     1
   3689   3694     1
   3689   3692     1
   3689   3693     1
   3689   3698     1
   3689   3699     1
   3689   3701     1
   3690   3694     1
   3690   3692     1
   3690   3693     1
   3690   3698     1
   3690   3699     1
   3690   3701     1
   3691   3698     1
   3691   3699     1
   3691   3701     1
   3692   3697     1
   3692   3700     1
   3692   3695     1
   3692   3696     1
   3693   3697     1
   3693   3700     1
   3693   3695     1
   3693   3696     1
   3702   3709     1
   3702   3710     1
   3703   3708     1
   3703   3706     1
   3703   3707     1
   3703   3712     1
   3703   3713     1
   3703   3715     1
   3704   3708     1
   3704   3706     1
   3704   3707     1
   3704   3712     1
   3704   3713     1
   3704   3715     1
   3705   3712     1
   3705   3713     1
   3705   3715     1
   3706   3714     1
   3706   3709     1
   3706   3710     1
   3706   3711     1
   3707   3714     1
   3707   3709     1
   3707   3710     1
   3707   3711     1
   3716   3723     1
   3716   3724     1
   3717   3722     1
   3717   3720     1
   3717   3721     1
   3717   3726     1
   3717   3727     1
   3717   3729     1
   3718   3722     1
   3718   3720     1
   3718   3721     1
   3718   3726     1
   3718   3727     1
   3718   3729     1
   3719   3726     1
   3719   3727     1
   3719   3729     1
   3720   3725     1
   3720   3728     1
   3720   3723     1
   3720   3724     1
   3721   3725     1
   3721   3728     1
   3721   3723     1
   3721   3724     1
   3730   3737     1
   3730   3738     1
   3731   3736     1
   3731   3734     1
   3731   3735     1
   3731   3740     1
   3731   3741     1
   3731   3743     1
   3732   3736     1
   3732   3734     1
   3732   3735     1
   3732   3740     1
   3732   3741     1
   3732   3743     1
   3733   3740     1
   3733   3741     1
   3733   3743     1
   3734   3742     1
   3734   3737     1
   3734   3738     1
   3734   3739     1
   3735   3742     1
   3735   3737     1
   3735   3738     1
   3735   3739     1
   3744   3751     1
   3744   3752     1
   3745   3750     1
   3745   3748     1
   3745   3749     1
   3745   3754     1
   3745   3755     1
   3745   3757     1
   3746   3750     1
   3746   3748     1
   3746   3749     1
   3746   3754     1
   3746   3755     1
   3746   3757     1
   3747   3754     1
   3747   3755     1
   3747   3757     1
   3748   3753     1
   3748   3756     1
   3748   3751     1
   3748   3752     1
   3749   3753     1
   3749   3756     1
   3749   3751     1
   3749   3752     1
   3758   3765     1
   3758   3766     1
   3759   3764     1
   3759   3762     1
   3759   3763     1
   3759   3768     1
   3759   3769     1
   3759   3771     1
   3760   3764     1
   3760   3762     1
   3760   3763     1
   3760   3768     1
   3760   3769     1
   3760   3771     1
   3761   3768     1
   3761   3769     1
   3761   3771     1
   3762   3770     1
   3762   3765     1
   3762   3766     1
   3762   3767     1
   3763   3770     1
   3763   3765     1
   3763   3766     1
   3763   3767     1
   3772   3779     1
   3772   3780     1
   3773   3778     1
   3773   3776     1
   3773   3777     1
   3773   3782     1
   3773   3783     1
   3773   3785     1
   3774   3778     1
   3774   3776     1
   3774   3777     1
   3774   3782     1
   3774   3783     1
   3774   3785     1
   3775   3782     1
   3775   3783     1
   3775   3785     1
   3776   3781     1
   3776   3784     1
   3776   3779     1
   3776   3780     1
   3777   3781     1
   3777   3784     1
   3777   3779     1
   3777   3780     1
   3786   3793     1
   3786   3794     1
   3787   3792     1
   3787   3790     1
   3787   3791     1
   3787   3796     1
   3787   3797     1
   3787   3799     1
   3788   3792     1
   3788   3790     1
   3788   3791     1
   3788   3796     1
   3788   3797     1
   3788   3799     1
   3789   3796     1
   3789   3797     1
   3789   3799     1
   3790   3798     1
   3790   3793     1
   3790   3794     1
   3790   3795     1
   3791   3798     1
   3791   3793     1
   3791   3794     1
   3791   3795     1
   3800   3807     1
   3800   3808     1
   3801   3806     1
   3801   3804     1
   3801   3805     1
   3801   3810     1
   3801   3811     1
   3801   3813     1
   3802   3806     1
   3802   3804     1
   3802   3805     1
   3802   3810     1
   3802   3811     1
   3802   3813     1
   3803   3810     1
   3803   3811     1
   3803   3813     1
   3804   3809     1
   3804   3812     1
   3804   3807     1
   3804   3808     1
   3805   3809     1
   3805   3812     1
   3805   3807     1
   3805   3808     1
   3814   3821     1
   3814   3822     1
   3815   3820     1
   3815   3818     1
   3815   3819     1
   3815   3824     1
   3815   3825     1
   3815   3827     1
   3816   3820     1
   3816   3818     1
   3816   3819     1
   3816   3824     1
   3816   3825     1
   3816   3827     1
   3817   3824     1
   3817   3825     1
   3817   3827     1
   3818   3826     1
   3818   3821     1
   3818   3822     1
   3818   3823     1
   3819   3826     1
   3819   3821     1
   3819   3822     1
   3819   3823     1
   3828   3835     1
   3828   3836     1
   3829   3834     1
   3829   3832     1
   3829   3833     1
   3829   3838     1
   3829   3839     1
   3829   3841     1
   3830   3834     1
   3830   3832     1
   3830   3833     1
   3830   3838     1
   3830   3839     1
   3830   3841     1
   3831   3838     1
   3831   3839     1
   3831   3841     1
   3832   3837     1
   3832   3840     1
   3832   3835     1
   3832   3836     1
   3833   3837     1
   3833   3840     1
   3833   3835     1
   3833   3836     1
   3842   3849     1
   3842   3850     1
   3843   3848     1
   3843   3846     1
   3843   3847     1
   3843   3852     1
   3843   3853     1
   3843   3855     1
   3844   3848     1
   3844   3846     1
   3844   3847     1
   3844   3852     1
   3844   3853     1
   3844   3855     1
   3845   3852     1
   3845   3853     1
   3845   3855     1
   3846   3854     1
   3846   3849     1
   3846   3850     1
   3846   3851     1
   3847   3854     1
   3847   3849     1
   3847   3850     1
   3847   3851     1
   3856   3863     1
   3856   3864     1
   3857   3862     1
   3857   3860     1
   3857   3861     1
   3857   3866     1
   3857   3867     1
   3857   3869     1
   3858   3862     1
   3858   3860     1
   3858   3861     1
   3858   3866     1
   3858   3867     1
   3858   3869     1
   3859   3866     1
   3859   3867     1
   3859   3869     1
   3860   3865     1
   3860   3868     1
   3860   3863     1
   3860   3864     1
   3861   3865     1
   3861   3868     1
   3861   3863     1
   3861   3864     1
   3870   3877     1
   3870   3878     1
   3871   3876     1
   3871   3874     1
   3871   3875     1
   3871   3880     1
   3871   3881     1
   3871   3883     1
   3872   3876     1
   3872   3874     1
   3872   3875     1
   3872   3880     1
   3872   3881     1
   3872   3883     1
   3873   3880     1
   3873   3881     1
   3873   3883     1
   3874   3882     1
   3874   3877     1
   3874   3878     1
   3874   3879     1
   3875   3882     1
   3875   3877     1
   3875   3878     1
   3875   3879     1
   3884   3891     1
   3884   3892     1
   3885   3890     1
   3885   3888     1
   3885   3889     1
   3885   3894     1
   3885   3895     1
   3885   3897     1
   3886   3890     1
   3886   3888     1
   3886   3889     1
   3886   3894     1
   3886   3895     1
   3886   3897     1
   3887   3894     1
   3887   3895     1
   3887   3897     1
   3888   3893     1
   3888   3896     1
   3888   3891     1
   3888   3892     1
   3889   3893     1
   3889   3896     1
   3889   3891     1
   3889   3892     1
   3898   3905     1
   3898   3906     1
   3899   3904     1
   3899   3902     1
   3899   3903     1
   3899   3908     1
   3899   3909     1
   3899   3911     1
   3900   3904     1
   3900   3902     1
   3900   3903     1
   3900   3908     1
   3900   3909     1
   3900   3911     1
   3901   3908     1
   3901   3909     1
   3901   3911     1
   3902   3910     1
   3902   3905     1
   3902   3906     1
   3902   3907     1
   3903   3910     1
   3903   3905     1
   3903   3906     1
   3903   3907     1
   3912   3919     1
   3912   3920     1
   3913   3918     1
   3913   3916     1
   3913   3917     1
   3913   3922     1
   3913   3923     1
   3913   3925     1
   3914   3918     1
   3914   3916     1
   3914   3917     1
   3914   3922     1
   3914   3923     1
   3914   3925     1
   3915   3922     1
   3915   3923     1
   3915   3925     1
   3916   3921     1
   3916   3924     1
   3916   3919     1
   3916   3920     1
   3917   3921     1
   3917   3924     1
   3917   3919     1
   3917   3920     1
   3926   3933     1
   3926   3934     1
   3927   3932     1
   3927   3930     1
   3927   3931     1
   3927   3936     1
   3927   3937     1
   3927   3939     1
   3928   3932     1
   3928   3930     1
   3928   3931     1
   3928   3936     1
   3928   3937     1
   3928   3939     1
   3929   3936     1
   3929   3937     1
   3929   3939     1
   3930   3938     1
   3930   3933     1
   3930   3934     1
   3930   3935     1
   3931   3938     1
   3931   3933     1
   3931   3934     1
   3931   3935     1
   3940   3947     1
   3940   3948     1
   3941   3946     1
   3941   3944     1
   3941   3945     1
   3941   3950     1
   3941   3951     1
   3941   3953     1
   3942   3946     1
   3942   3944     1
   3942   3945     1
   3942   3950     1
   3942   3951     1
   3942   3953     1
   3943   3950     1
   3943   3951     1
   3943   3953     1
   3944   3949     1
   3944   3952     1
   3944   3947     1
   3944   3948     1
   3945   3949     1
   3945   3952     1
   3945   3947     1
   3945   3948     1
   3954   3961     1
   3954   3962     1
   3955   3960     1
   3955   3958     1
   3955   3959     1
   3955   3964     1
   3955   3965     1
   3955   3967     1
   3956   3960     1
   3956   3958     1
   3956   3959     1
   3956   3964     1
   3956   3965     1
   3956   3967     1
   3957   3964     1
   3957   3965     1
   3957   3967     1
   3958   3966     1
   3958   3961     1
   3958   3962     1
   3958   3963     1
   3959   3966     1
   3959   3961     1
   3959   3962     1
   3959   3963     1
   3968   3975     1
   3968   3976     1
   3969   3974     1
   3969   3972     1
   3969   3973     1
   3969   3978     1
   3969   3979     1
   3969   3981     1
   3970   3974     1
   3970   3972     1
   3970   3973     1
   3970   3978     1
   3970   3979     1
   3970   3981     1
   3971   3978     1
   3971   3979     1
   3971   3981     1
   3972   3977     1
   3972   3980     1
   3972   3975     1
   3972   3976     1
   3973   3977     1
   3973   3980     1
   3973   3975     1
   3973   3976     1
   3982   3989     1
   3982   3990     1
   3983   3988     1
   3983   3986     1
   3983   3987     1
   3983   3992     1
   3983   3993     1
   3983   3995     1
   3984   3988     1
   3984   3986     1
   3984   3987     1
   3984   3992     1
   3984   3993     1
   3984   3995     1
   3985   3992     1
   3985   3993     1
   3985   3995     1
   3986   3994     1
   3986   3989     1
   3986   3990     1
   3986   3991     1
   3987   3994     1
   3987   3989     1
   3987   3990     1
   3987   3991     1
   3996   4003     1
   3996   4004     1
   3997   4002     1
   3997   4000     1
   3997   4001     1
   3997   4006     1
   3997   4007     1
   3997   4009     1
   3998   4002     1
   3998   4000     1
   3998   4001     1
   3998   4006     1
   3998   4007     1
   3998   4009     1
   3999   4006     1
   3999   4007     1
   3999   4009     1
   4000   4005     1
   4000   4008     1
   4000   4003     1
   4000   4004     1
   4001   4005     1
   4001   4008     1
   4001   4003     1
   4001   4004     1
   4010   4017     1
   4010   4018     1
   4011   4016     1
   4011   4014     1
   4011   4015     1
   4011   4020     1
   4011   4021     1
   4011   4023     1
   4012   4016     1
   4012   4014     1
   4012   4015     1
   4012   4020     1
   4012   4021     1
   4012   4023     1
   4013   4020     1
   4013   4021     1
   4013   4023     1
   4014   4022     1
   4014   4017     1
   4014   4018     1
   4014   4019     1
   4015   4022     1
   4015   4017     1
   4015   4018     1
   4015   4019     1
   4024   4031     1
   4024   4032     1
   4025   4030     1
   4025   4028     1
   4025   4029     1
   4025   4034     1
   4025   4035     1
   4025   4037     1
   4026   4030     1
   4026   4028     1
   4026   4029     1
   4026   4034     1
   4026   4035     1
   4026   4037     1
   4027   4034     1
   4027   4035     1
   4027   4037     1
   4028   4033     1
   4028   4036     1
   4028   4031     1
   4028   4032     1
   4029   4033     1
   4029   4036     1
   4029   4031     1
   4029   4032     1
   4038   4045     1
   4038   4046     1
   4039   4044     1
   4039   4042     1
   4039   4043     1
   4039   4048     1
   4039   4049     1
   4039   4051     1
   4040   4044     1
   4040   4042     1
   4040   4043     1
   4040   4048     1
   4040   4049     1
   4040   4051     1
   4041   4048     1
   4041   4049     1
   4041   4051     1
   4042   4050     1
   4042   4045     1
   4042   4046     1
   4042   4047     1
   4043   4050     1
   4043   4045     1
   4043   4046     1
   4043   4047     1
   4052   4059     1
   4052   4060     1
   4053   4058     1
   4053   4056     1
   4053   4057     1
   4053   4062     1
   4053   4063     1
   4053   4065     1
   4054   4058     1
   4054   4056     1
   4054   4057     1
   4054   4062     1
   4054   4063     1
   4054   4065     1
   4055   4062     1
   4055   4063     1
   4055   4065     1
   4056   4061     1
   4056   4064     1
   4056   4059     1
   4056   4060     1
   4057   4061     1
   4057   4064     1
   4057   4059     1
   4057   4060     1
   4066   4073     1
   4066   4074     1
   4067   4072     1
   4067   4070     1
   4067   4071     1
   4067   4076     1
   4067   4077     1
   4067   4079     1
   4068   4072     1
   4068   4070     1
   4068   4071     1
   4068   4076     1
   4068   4077     1
   4068   4079     1
   4069   4076     1
   4069   4077     1
   4069   4079     1
   4070   4078     1
   4070   4073     1
   4070   4074     1
   4070   4075     1
   4071   4078     1
   4071   4073     1
   4071   4074     1
   4071   4075     1
   4080   4087     1
   4080   4088     1
   4081   4086     1
   4081   4084     1
   4081   4085     1
   4081   4090     1
   4081   4091     1
   4081   4093     1
   4082   4086     1
   4082   4084     1
   4082   4085     1
   4082   4090     1
   4082   4091     1
   4082   4093     1
   4083   4090     1
   4083   4091     1
   4083   4093     1
   4084   4089     1
   4084   4092     1
   4084   4087     1
   4084   4088     1
   4085   4089     1
   4085   4092     1
   4085   4087     1
   4085   4088     1
   4094   4101     1
   4094   4102     1
   4095   4100     1
   4095   4098     1
   4095   4099     1
   4095   4104     1
   4095   4105     1
   4095   4107     1
   4096   4100     1
   4096   4098     1
   4096   4099     1
   4096   4104     1
   4096   4105     1
   4096   4107     1
   4097   4104     1
   4097   4105     1
   4097   4107     1
   4098   4106     1
   4098   4101     1
   4098   4102     1
   4098   4103     1
   4099   4106     1
   4099   4101     1
   4099   4102     1
   4099   4103     1
   4108   4115     1
   4108   4116     1
   4109   4114     1
   4109   4112     1
   4109   4113     1
   4109   4118     1
   4109   4119     1
   4109   4121     1
   4110   4114     1
   4110   4112     1
   4110   4113     1
   4110   4118     1
   4110   4119     1
   4110   4121     1
   4111   4118     1
   4111   4119     1
   4111   4121     1
   4112   4117     1
   4112   4120     1
   4112   4115     1
   4112   4116     1
   4113   4117     1
   4113   4120     1
   4113   4115     1
   4113   4116     1
   4122   4129     1
   4122   4130     1
   4123   4128     1
   4123   4126     1
   4123   4127     1
   4123   4132     1
   4123   4133     1
   4123   4135     1
   4124   4128     1
   4124   4126     1
   4124   4127     1
   4124   4132     1
   4124   4133     1
   4124   4135     1
   4125   4132     1
   4125   4133     1
   4125   4135     1
   4126   4134     1
   4126   4129     1
   4126   4130     1
   4126   4131     1
   4127   4134     1
   4127   4129     1
   4127   4130     1
   4127   4131     1
   4136   4143     1
   4136   4144     1
   4137   4142     1
   4137   4140     1
   4137   4141     1
   4137   4146     1
   4137   4147     1
   4137   4149     1
   4138   4142     1
   4138   4140     1
   4138   4141     1
   4138   4146     1
   4138   4147     1
   4138   4149     1
   4139   4146     1
   4139   4147     1
   4139   4149     1
   4140   4145     1
   4140   4148     1
   4140   4143     1
   4140   4144     1
   4141   4145     1
   4141   4148     1
   4141   4143     1
   4141   4144     1
   4150   4157     1
   4150   4158     1
   4151   4156     1
   4151   4154     1
   4151   4155     1
   4151   4160     1
   4151   4161     1
   4151   4163     1
   4152   4156     1
   4152   4154     1
   4152   4155     1
   4152   4160     1
   4152   4161     1
   4152   4163     1
   4153   4160     1
   4153   4161     1
   4153   4163     1
   4154   4162     1
   4154   4157     1
   4154   4158     1
   4154   4159     1
   4155   4162     1
   4155   4157     1
   4155   4158     1
   4155   4159     1

[ angles ]
;    ai     aj     ak funct         c0         c1         c2         c3
      1      2     14     1   114.2100488 537.225600
      1      5     17     1   114.2100488 537.225600
      1      8     11     1   114.2100488 537.225600
      2      1      5     1   109.6600471 523.836800
      2      1      8     1   109.6600471 523.836800
      2     14     26     1   111.5100476 526.347200
      5      1      8     1   109.6600471 523.836800
      5     17     20     1   111.5100476 526.347200
      8     11     23     1   111.5100476 526.347200
     11     23     88     1   107.9700462 569.024000
     14     26    118     1   107.9700462 569.024000
     17     20     58     1   107.9700462 569.024000
     20     58     49     1   112.4800480 524.673600
     23     88     79     1   112.4800480 524.673600
     26    118    109     1   112.4800480 524.673600
     30     31     43     1   114.2100488 537.225600
     30     34     46     1   114.2100488 537.225600
     30     37     40     1   114.2100488 537.225600
     31     30     34     1   109.6600471 523.836800
     31     30     37     1   109.6600471 523.836800
     31     43     55     1   111.5100476 526.347200
     34     30     37     1   109.6600471 523.836800
     34     46     52     1   111.5100476 526.347200
     37     40     49     1   111.5100476 526.347200
     40     49     58     1   107.9700462 569.024000
     43     55    178     1   107.9700462 569.024000
     46     52    148     1   107.9700462 569.024000
     52    148    139     1   112.4800480 524.673600
     55    178    169     1   112.4800480 524.673600
     60     61     73     1   114.2100488 537.225600
     60     64     76     1   114.2100488 537.225600
     60     67     70     1   114.2100488 537.225600
     61     60     64     1   109.6600471 523.836800
     61     60     67     1   109.6600471 523.836800
     61     73     85     1   111.5100476 526.347200
     64     60     67     1   109.6600471 523.836800
     64     76     82     1   111.5100476 526.347200
     67     70     79     1   111.5100476 526.347200
     70     79     88     1   107.9700462 569.024000
     73     85    238     1   107.9700462 569.024000
     76     82    208     1   107.9700462 569.024000
     82    208    199     1   112.4800480 524.673600
     85    238    229     1   112.4800480 524.673600
     90     91    103     1   114.2100488 537.225600
     90     94    106     1   114.2100488 537.225600
     90     97    100     1   114.2100488 537.225600
     91     90     94     1   109.6600471 523.836800
     91     90     97     1   109.6600471 523.836800
     91    103    115     1   111.5100476 526.347200
     94     90     97     1   109.6600471 523.836800
     94    106    112     1   111.5100476 526.347200
     97    100    109     1   111.5100476 526.347200
    100    109    118     1   107.9700462 569.024000
    103    115    298     1   107.9700462 569.024000
    106    112    268     1   107.9700462 569.024000
    112    268    259     1   112.4800480 524.673600
    115    298    289     1   112.4800480 524.673600
    120    121    133     1   114.2100488 537.225600
    120    124    136     1   114.2100488 537.225600
    120    127    130     1   114.2100488 537.225600
    121    120    124     1   109.6600471 523.836800
    121    120    127     1   109.6600471 523.836800
    121    133    145     1   111.5100476 526.347200
    124    120    127     1   109.6600471 523.836800
    124    136    142     1   111.5100476 526.347200
    127    130    139     1   111.5100476 526.347200
    130    139    148     1   107.9700462 569.024000
    133    145    358     1   107.9700462 569.024000
    136    142    328     1   107.9700462 569.024000
    142    328    319     1   112.4800480 524.673600
    145    358    349     1   112.4800480 524.673600
    150    151    163     1   114.2100488 537.225600
    150    154    166     1   114.2100488 537.225600
    150    157    160     1   114.2100488 537.225600
    151    150    154     1   109.6600471 523.836800
    151    150    157     1   109.6600471 523.836800
    151    163    175     1   111.5100476 526.347200
    154    150    157     1   109.6600471 523.836800
    154    166    172     1   111.5100476 526.347200
    157    160    169     1   111.5100476 526.347200
    160    169    178     1   107.9700462 569.024000
    163    175    418     1   107.9700462 569.024000
    166    172    388     1   107.9700462 569.024000
    172    388    379     1   112.4800480 524.673600
    175    418    409     1   112.4800480 524.673600
    180    181    193     1   114.2100488 537.225600
    180    184    196     1   114.2100488 537.225600
    180    187    190     1   114.2100488 537.225600
    181    180    184     1   109.6600471 523.836800
    181    180    187     1   109.6600471 523.836800
    181    193    205     1   111.5100476 526.347200
    184    180    187     1   109.6600471 523.836800
    184    196    202     1   111.5100476 526.347200
    187    190    199     1   111.5100476 526.347200
    190    199    208     1   107.9700462 569.024000
    193    205    478     1   107.9700462 569.024000
    196    202    448     1   107.9700462 569.024000
    202    448    439     1   112.4800480 524.673600
    205    478    469     1   112.4800480 524.673600
    210    211    223     1   114.2100488 537.225600
    210    214    226     1   114.2100488 537.225600
    210    217    220     1   114.2100488 537.225600
    211    210    214     1   109.6600471 523.836800
    211    210    217     1   109.6600471 523.836800
    211    223    235     1   111.5100476 526.347200
    214    210    217     1   109.6600471 523.836800
    214    226    232     1   111.5100476 526.347200
    217    220    229     1   111.5100476 526.347200
    220    229    238     1   107.9700462 569.024000
    223    235    538     1   107.9700462 569.024000
    226    232    508     1   107.9700462 569.024000
    232    508    499     1   112.4800480 524.673600
    235    538    529     1   112.4800480 524.673600
    240    241    253     1   114.2100488 537.225600
    240    244    256     1   114.2100488 537.225600
    240    247    250     1   114.2100488 537.225600
    241    240    244     1   109.6600471 523.836800
    241    240    247     1   109.6600471 523.836800
    241    253    265     1   111.5100476 526.347200
    244    240    247     1   109.6600471 523.836800
    244    256    262     1   111.5100476 526.347200
    247    250    259     1   111.5100476 526.347200
    250    259    268     1   107.9700462 569.024000
    253    265    598     1   107.9700462 569.024000
    256    262    568     1   107.9700462 569.024000
    262    568    559     1   112.4800480 524.673600
    265    598    589     1   112.4800480 524.673600
    270    271    283     1   114.2100488 537.225600
    270    274    286     1   114.2100488 537.225600
    270    277    280     1   114.2100488 537.225600
    271    270    274     1   109.6600471 523.836800
    271    270    277     1   109.6600471 523.836800
    271    283    295     1   111.5100476 526.347200
    274    270    277     1   109.6600471 523.836800
    274    286    292     1   111.5100476 526.347200
    277    280    289     1   111.5100476 526.347200
    280    289    298     1   107.9700462 569.024000
    283    295    658     1   107.9700462 569.024000
    286    292    628     1   107.9700462 569.024000
    292    628    619     1   112.4800480 524.673600
    295    658    649     1   112.4800480 524.673600
    300    301    313     1   114.2100488 537.225600
    300    304    316     1   114.2100488 537.225600
    300    307    310     1   114.2100488 537.225600
    301    300    304     1   109.6600471 523.836800
    301    300    307     1   109.6600471 523.836800
    301    313    325     1   111.5100476 526.347200
    304    300    307     1   109.6600471 523.836800
    304    316    322     1   111.5100476 526.347200
    307    310    319     1   111.5100476 526.347200
    310    319    328     1   107.9700462 569.024000
    313    325    718     1   107.9700462 569.024000
    316    322    688     1   107.9700462 569.024000
    322    688    679     1   112.4800480 524.673600
    325    718    709     1   112.4800480 524.673600
    330    331    343     1   114.2100488 537.225600
    330    334    346     1   114.2100488 537.225600
    330    337    340     1   114.2100488 537.225600
    331    330    334     1   109.6600471 523.836800
    331    330    337     1   109.6600471 523.836800
    331    343    355     1   111.5100476 526.347200
    334    330    337     1   109.6600471 523.836800
    334    346    352     1   111.5100476 526.347200
    337    340    349     1   111.5100476 526.347200
    340    349    358     1   107.9700462 569.024000
    343    355    778     1   107.9700462 569.024000
    346    352    748     1   107.9700462 569.024000
    352    748    739     1   112.4800480 524.673600
    355    778    769     1   112.4800480 524.673600
    360    361    373     1   114.2100488 537.225600
    360    364    376     1   114.2100488 537.225600
    360    367    370     1   114.2100488 537.225600
    361    360    364     1   109.6600471 523.836800
    361    360    367     1   109.6600471 523.836800
    361    373    385     1   111.5100476 526.347200
    364    360    367     1   109.6600471 523.836800
    364    376    382     1   111.5100476 526.347200
    367    370    379     1   111.5100476 526.347200
    370    379    388     1   107.9700462 569.024000
    373    385    838     1   107.9700462 569.024000
    376    382    808     1   107.9700462 569.024000
    382    808    799     1   112.4800480 524.673600
    385    838    829     1   112.4800480 524.673600
    390    391    403     1   114.2100488 537.225600
    390    394    406     1   114.2100488 537.225600
    390    397    400     1   114.2100488 537.225600
    391    390    394     1   109.6600471 523.836800
    391    390    397     1   109.6600471 523.836800
    391    403    415     1   111.5100476 526.347200
    394    390    397     1   109.6600471 523.836800
    394    406    412     1   111.5100476 526.347200
    397    400    409     1   111.5100476 526.347200
    400    409    418     1   107.9700462 569.024000
    403    415    898     1   107.9700462 569.024000
    406    412    868     1   107.9700462 569.024000
    412    868    859     1   112.4800480 524.673600
    415    898    889     1   112.4800480 524.673600
    420    421    433     1   114.2100488 537.225600
    420    424    436     1   114.2100488 537.225600
    420    427    430     1   114.2100488 537.225600
    421    420    424     1   109.6600471 523.836800
    421    420    427     1   109.6600471 523.836800
    421    433    445     1   111.5100476 526.347200
    424    420    427     1   109.6600471 523.836800
    424    436    442     1   111.5100476 526.347200
    427    430    439     1   111.5100476 526.347200
    430    439    448     1   107.9700462 569.024000
    433    445    958     1   107.9700462 569.024000
    436    442    928     1   107.9700462 569.024000
    442    928    919     1   112.4800480 524.673600
    445    958    949     1   112.4800480 524.673600
    450    451    463     1   114.2100488 537.225600
    450    454    466     1   114.2100488 537.225600
    450    457    460     1   114.2100488 537.225600
    451    450    454     1   109.6600471 523.836800
    451    450    457     1   109.6600471 523.836800
    451    463    475     1   111.5100476 526.347200
    454    450    457     1   109.6600471 523.836800
    454    466    472     1   111.5100476 526.347200
    457    460    469     1   111.5100476 526.347200
    460    469    478     1   107.9700462 569.024000
    463    475   1018     1   107.9700462 569.024000
    466    472    988     1   107.9700462 569.024000
    472    988    979     1   112.4800480 524.673600
    475   1018   1009     1   112.4800480 524.673600
    480    481    493     1   114.2100488 537.225600
    480    484    496     1   114.2100488 537.225600
    480    487    490     1   114.2100488 537.225600
    481    480    484     1   109.6600471 523.836800
    481    480    487     1   109.6600471 523.836800
    481    493    505     1   111.5100476 526.347200
    484    480    487     1   109.6600471 523.836800
    484    496    502     1   111.5100476 526.347200
    487    490    499     1   111.5100476 526.347200
    490    499    508     1   107.9700462 569.024000
    493    505   1078     1   107.9700462 569.024000
    496    502   1048     1   107.9700462 569.024000
    502   1048   1039     1   112.4800480 524.673600
    505   1078   1069     1   112.4800480 524.673600
    510    511    523     1   114.2100488 537.225600
    510    514    526     1   114.2100488 537.225600
    510    517    520     1   114.2100488 537.225600
    511    510    514     1   109.6600471 523.836800
    511    510    517     1   109.6600471 523.836800
    511    523    535     1   111.5100476 526.347200
    514    510    517     1   109.6600471 523.836800
    514    526    532     1   111.5100476 526.347200
    517    520    529     1   111.5100476 526.347200
    520    529    538     1   107.9700462 569.024000
    523    535   1138     1   107.9700462 569.024000
    526    532   1108     1   107.9700462 569.024000
    532   1108   1099     1   112.4800480 524.673600
    535   1138   1129     1   112.4800480 524.673600
    540    541    553     1   114.2100488 537.225600
    540    544    556     1   114.2100488 537.225600
    540    547    550     1   114.2100488 537.225600
    541    540    544     1   109.6600471 523.836800
    541    540    547     1   109.6600471 523.836800
    541    553    565     1   111.5100476 526.347200
    544    540    547     1   109.6600471 523.836800
    544    556    562     1   111.5100476 526.347200
    547    550    559     1   111.5100476 526.347200
    550    559    568     1   107.9700462 569.024000
    553    565   1198     1   107.9700462 569.024000
    556    562   1168     1   107.9700462 569.024000
    562   1168   1159     1   112.4800480 524.673600
    565   1198   1189     1   112.4800480 524.673600
    570    571    583     1   114.2100488 537.225600
    570    574    586     1   114.2100488 537.225600
    570    577    580     1   114.2100488 537.225600
    571    570    574     1   109.6600471 523.836800
    571    570    577     1   109.6600471 523.836800
    571    583    595     1   111.5100476 526.347200
    574    570    577     1   109.6600471 523.836800
    574    586    592     1   111.5100476 526.347200
    577    580    589     1   111.5100476 526.347200
    580    589    598     1   107.9700462 569.024000
    583    595   1258     1   107.9700462 569.024000
    586    592   1228     1   107.9700462 569.024000
    592   1228   1219     1   112.4800480 524.673600
    595   1258   1249     1   112.4800480 524.673600
    600    601    613     1   114.2100488 537.225600
    600    604    616     1   114.2100488 537.225600
    600    607    610     1   114.2100488 537.225600
    601    600    604     1   109.6600471 523.836800
    601    600    607     1   109.6600471 523.836800
    601    613    625     1   111.5100476 526.347200
    604    600    607     1   109.6600471 523.836800
    604    616    622     1   111.5100476 526.347200
    607    610    619     1   111.5100476 526.347200
    610    619    628     1   107.9700462 569.024000
    613    625   1318     1   107.9700462 569.024000
    616    622   1288     1   107.9700462 569.024000
    622   1288   1279     1   112.4800480 524.673600
    625   1318   1309     1   112.4800480 524.673600
    630    631    643     1   114.2100488 537.225600
    630    634    646     1   114.2100488 537.225600
    630    637    640     1   114.2100488 537.225600
    631    630    634     1   109.6600471 523.836800
    631    630    637     1   109.6600471 523.836800
    631    643    655     1   111.5100476 526.347200
    634    630    637     1   109.6600471 523.836800
    634    646    652     1   111.5100476 526.347200
    637    640    649     1   111.5100476 526.347200
    640    649    658     1   107.9700462 569.024000
    643    655   1378     1   107.9700462 569.024000
    646    652   1348     1   107.9700462 569.024000
    652   1348   1339     1   112.4800480 524.673600
    655   1378   1369     1   112.4800480 524.673600
    660    661    673     1   114.2100488 537.225600
    660    664    676     1   114.2100488 537.225600
    660    667    670     1   114.2100488 537.225600
    661    660    664     1   109.6600471 523.836800
    661    660    667     1   109.6600471 523.836800
    661    673    685     1   111.5100476 526.347200
    664    660    667     1   109.6600471 523.836800
    664    676    682     1   111.5100476 526.347200
    667    670    679     1   111.5100476 526.347200
    670    679    688     1   107.9700462 569.024000
    673    685   1438     1   107.9700462 569.024000
    676    682   1408     1   107.9700462 569.024000
    682   1408   1399     1   112.4800480 524.673600
    685   1438   1429     1   112.4800480 524.673600
    690    691    703     1   114.2100488 537.225600
    690    694    706     1   114.2100488 537.225600
    690    697    700     1   114.2100488 537.225600
    691    690    694     1   109.6600471 523.836800
    691    690    697     1   109.6600471 523.836800
    691    703    715     1   111.5100476 526.347200
    694    690    697     1   109.6600471 523.836800
    694    706    712     1   111.5100476 526.347200
    697    700    709     1   111.5100476 526.347200
    700    709    718     1   107.9700462 569.024000
    703    715   1498     1   107.9700462 569.024000
    706    712   1468     1   107.9700462 569.024000
    712   1468   1459     1   112.4800480 524.673600
    715   1498   1489     1   112.4800480 524.673600
    720    721    733     1   114.2100488 537.225600
    720    724    736     1   114.2100488 537.225600
    720    727    730     1   114.2100488 537.225600
    721    720    724     1   109.6600471 523.836800
    721    720    727     1   109.6600471 523.836800
    721    733    745     1   111.5100476 526.347200
    724    720    727     1   109.6600471 523.836800
    724    736    742     1   111.5100476 526.347200
    727    730    739     1   111.5100476 526.347200
    730    739    748     1   107.9700462 569.024000
    733    745   1558     1   107.9700462 569.024000
    736    742   1528     1   107.9700462 569.024000
    742   1528   1519     1   112.4800480 524.673600
    745   1558   1549     1   112.4800480 524.673600
    750    751    763     1   114.2100488 537.225600
    750    754    766     1   114.2100488 537.225600
    750    757    760     1   114.2100488 537.225600
    751    750    754     1   109.6600471 523.836800
    751    750    757     1   109.6600471 523.836800
    751    763    775     1   111.5100476 526.347200
    754    750    757     1   109.6600471 523.836800
    754    766    772     1   111.5100476 526.347200
    757    760    769     1   111.5100476 526.347200
    760    769    778     1   107.9700462 569.024000
    763    775   1618     1   107.9700462 569.024000
    766    772   1588     1   107.9700462 569.024000
    772   1588   1579     1   112.4800480 524.673600
    775   1618   1609     1   112.4800480 524.673600
    780    781    793     1   114.2100488 537.225600
    780    784    796     1   114.2100488 537.225600
    780    787    790     1   114.2100488 537.225600
    781    780    784     1   109.6600471 523.836800
    781    780    787     1   109.6600471 523.836800
    781    793    805     1   111.5100476 526.347200
    784    780    787     1   109.6600471 523.836800
    784    796    802     1   111.5100476 526.347200
    787    790    799     1   111.5100476 526.347200
    790    799    808     1   107.9700462 569.024000
    793    805   1678     1   107.9700462 569.024000
    796    802   1648     1   107.9700462 569.024000
    802   1648   1639     1   112.4800480 524.673600
    805   1678   1669     1   112.4800480 524.673600
    810    811    823     1   114.2100488 537.225600
    810    814    826     1   114.2100488 537.225600
    810    817    820     1   114.2100488 537.225600
    811    810    814     1   109.6600471 523.836800
    811    810    817     1   109.6600471 523.836800
    811    823    835     1   111.5100476 526.347200
    814    810    817     1   109.6600471 523.836800
    814    826    832     1   111.5100476 526.347200
    817    820    829     1   111.5100476 526.347200
    820    829    838     1   107.9700462 569.024000
    823    835   1738     1   107.9700462 569.024000
    826    832   1708     1   107.9700462 569.024000
    832   1708   1699     1   112.4800480 524.673600
    835   1738   1729     1   112.4800480 524.673600
    840    841    853     1   114.2100488 537.225600
    840    844    856     1   114.2100488 537.225600
    840    847    850     1   114.2100488 537.225600
    841    840    844     1   109.6600471 523.836800
    841    840    847     1   109.6600471 523.836800
    841    853    865     1   111.5100476 526.347200
    844    840    847     1   109.6600471 523.836800
    844    856    862     1   111.5100476 526.347200
    847    850    859     1   111.5100476 526.347200
    850    859    868     1   107.9700462 569.024000
    853    865   1798     1   107.9700462 569.024000
    856    862   1768     1   107.9700462 569.024000
    862   1768   1759     1   112.4800480 524.673600
    865   1798   1789     1   112.4800480 524.673600
    870    871    883     1   114.2100488 537.225600
    870    874    886     1   114.2100488 537.225600
    870    877    880     1   114.2100488 537.225600
    871    870    874     1   109.6600471 523.836800
    871    870    877     1   109.6600471 523.836800
    871    883    895     1   111.5100476 526.347200
    874    870    877     1   109.6600471 523.836800
    874    886    892     1   111.5100476 526.347200
    877    880    889     1   111.5100476 526.347200
    880    889    898     1   107.9700462 569.024000
    883    895   1858     1   107.9700462 569.024000
    886    892   1828     1   107.9700462 569.024000
    892   1828   1819     1   112.4800480 524.673600
    895   1858   1849     1   112.4800480 524.673600
    900    901    913     1   114.2100488 537.225600
    900    904    916     1   114.2100488 537.225600
    900    907    910     1   114.2100488 537.225600
    901    900    904     1   109.6600471 523.836800
    901    900    907     1   109.6600471 523.836800
    901    913    925     1   111.5100476 526.347200
    904    900    907     1   109.6600471 523.836800
    904    916    922     1   111.5100476 526.347200
    907    910    919     1   111.5100476 526.347200
    910    919    928     1   107.9700462 569.024000
    913    925   1918     1   107.9700462 569.024000
    916    922   1888     1   107.9700462 569.024000
    922   1888   1879     1   112.4800480 524.673600
    925   1918   1909     1   112.4800480 524.673600
    930    931    943     1   114.2100488 537.225600
    930    934    946     1   114.2100488 537.225600
    930    937    940     1   114.2100488 537.225600
    931    930    934     1   109.6600471 523.836800
    931    930    937     1   109.6600471 523.836800
    931    943    955     1   111.5100476 526.347200
    934    930    937     1   109.6600471 523.836800
    934    946    952     1   111.5100476 526.347200
    937    940    949     1   111.5100476 526.347200
    940    949    958     1   107.9700462 569.024000
    943    955   1978     1   107.9700462 569.024000
    946    952   1948     1   107.9700462 569.024000
    952   1948   1939     1   112.4800480 524.673600
    955   1978   1969     1   112.4800480 524.673600
    960    961    973     1   114.2100488 537.225600
    960    964    976     1   114.2100488 537.225600
    960    967    970     1   114.2100488 537.225600
    961    960    964     1   109.6600471 523.836800
    961    960    967     1   109.6600471 523.836800
    961    973    985     1   111.5100476 526.347200
    964    960    967     1   109.6600471 523.836800
    964    976    982     1   111.5100476 526.347200
    967    970    979     1   111.5100476 526.347200
    970    979    988     1   107.9700462 569.024000
    973    985   2038     1   107.9700462 569.024000
    976    982   2008     1   107.9700462 569.024000
    982   2008   1999     1   112.4800480 524.673600
    985   2038   2029     1   112.4800480 524.673600
    990    991   1003     1   114.2100488 537.225600
    990    994   1006     1   114.2100488 537.225600
    990    997   1000     1   114.2100488 537.225600
    991    990    994     1   109.6600471 523.836800
    991    990    997     1   109.6600471 523.836800
    991   1003   1015     1   111.5100476 526.347200
    994    990    997     1   109.6600471 523.836800
    994   1006   1012     1   111.5100476 526.347200
    997   1000   1009     1   111.5100476 526.347200
   1000   1009   1018     1   107.9700462 569.024000
   1003   1015   2098     1   107.9700462 569.024000
   1006   1012   2068     1   107.9700462 569.024000
   1012   2068   2059     1   112.4800480 524.673600
   1015   2098   2089     1   112.4800480 524.673600
   1020   1021   1033     1   114.2100488 537.225600
   1020   1024   1036     1   114.2100488 537.225600
   1020   1027   1030     1   114.2100488 537.225600
   1021   1020   1024     1   109.6600471 523.836800
   1021   1020   1027     1   109.6600471 523.836800
   1021   1033   1045     1   111.5100476 526.347200
   1024   1020   1027     1   109.6600471 523.836800
   1024   1036   1042     1   111.5100476 526.347200
   1027   1030   1039     1   111.5100476 526.347200
   1030   1039   1048     1   107.9700462 569.024000
   1033   1045   2158     1   107.9700462 569.024000
   1036   1042   2128     1   107.9700462 569.024000
   1042   2128   2119     1   112.4800480 524.673600
   1045   2158   2149     1   112.4800480 524.673600
   1050   1051   1063     1   114.2100488 537.225600
   1050   1054   1066     1   114.2100488 537.225600
   1050   1057   1060     1   114.2100488 537.225600
   1051   1050   1054     1   109.6600471 523.836800
   1051   1050   1057     1   109.6600471 523.836800
   1051   1063   1075     1   111.5100476 526.347200
   1054   1050   1057     1   109.6600471 523.836800
   1054   1066   1072     1   111.5100476 526.347200
   1057   1060   1069     1   111.5100476 526.347200
   1060   1069   1078     1   107.9700462 569.024000
   1063   1075   2218     1   107.9700462 569.024000
   1066   1072   2188     1   107.9700462 569.024000
   1072   2188   2179     1   112.4800480 524.673600
   1075   2218   2209     1   112.4800480 524.673600
   1080   1081   1093     1   114.2100488 537.225600
   1080   1084   1096     1   114.2100488 537.225600
   1080   1087   1090     1   114.2100488 537.225600
   1081   1080   1084     1   109.6600471 523.836800
   1081   1080   1087     1   109.6600471 523.836800
   1081   1093   1105     1   111.5100476 526.347200
   1084   1080   1087     1   109.6600471 523.836800
   1084   1096   1102     1   111.5100476 526.347200
   1087   1090   1099     1   111.5100476 526.347200
   1090   1099   1108     1   107.9700462 569.024000
   1093   1105   2278     1   107.9700462 569.024000
   1096   1102   2248     1   107.9700462 569.024000
   1102   2248   2239     1   112.4800480 524.673600
   1105   2278   2269     1   112.4800480 524.673600
   1110   1111   1123     1   114.2100488 537.225600
   1110   1114   1126     1   114.2100488 537.225600
   1110   1117   1120     1   114.2100488 537.225600
   1111   1110   1114     1   109.6600471 523.836800
   1111   1110   1117     1   109.6600471 523.836800
   1111   1123   1135     1   111.5100476 526.347200
   1114   1110   1117     1   109.6600471 523.836800
   1114   1126   1132     1   111.5100476 526.347200
   1117   1120   1129     1   111.5100476 526.347200
   1120   1129   1138     1   107.9700462 569.024000
   1123   1135   2338     1   107.9700462 569.024000
   1126   1132   2308     1   107.9700462 569.024000
   1132   2308   2299     1   112.4800480 524.673600
   1135   2338   2329     1   112.4800480 524.673600
   1140   1141   1153     1   114.2100488 537.225600
   1140   1144   1156     1   114.2100488 537.225600
   1140   1147   1150     1   114.2100488 537.225600
   1141   1140   1144     1   109.6600471 523.836800
   1141   1140   1147     1   109.6600471 523.836800
   1141   1153   1165     1   111.5100476 526.347200
   1144   1140   1147     1   109.6600471 523.836800
   1144   1156   1162     1   111.5100476 526.347200
   1147   1150   1159     1   111.5100476 526.347200
   1150   1159   1168     1   107.9700462 569.024000
   1153   1165   2398     1   107.9700462 569.024000
   1156   1162   2368     1   107.9700462 569.024000
   1162   2368   2359     1   112.4800480 524.673600
   1165   2398   2389     1   112.4800480 524.673600
   1170   1171   1183     1   114.2100488 537.225600
   1170   1174   1186     1   114.2100488 537.225600
   1170   1177   1180     1   114.2100488 537.225600
   1171   1170   1174     1   109.6600471 523.836800
   1171   1170   1177     1   109.6600471 523.836800
   1171   1183   1195     1   111.5100476 526.347200
   1174   1170   1177     1   109.6600471 523.836800
   1174   1186   1192     1   111.5100476 526.347200
   1177   1180   1189     1   111.5100476 526.347200
   1180   1189   1198     1   107.9700462 569.024000
   1183   1195   2458     1   107.9700462 569.024000
   1186   1192   2428     1   107.9700462 569.024000
   1192   2428   2419     1   112.4800480 524.673600
   1195   2458   2449     1   112.4800480 524.673600
   1200   1201   1213     1   114.2100488 537.225600
   1200   1204   1216     1   114.2100488 537.225600
   1200   1207   1210     1   114.2100488 537.225600
   1201   1200   1204     1   109.6600471 523.836800
   1201   1200   1207     1   109.6600471 523.836800
   1201   1213   1225     1   111.5100476 526.347200
   1204   1200   1207     1   109.6600471 523.836800
   1204   1216   1222     1   111.5100476 526.347200
   1207   1210   1219     1   111.5100476 526.347200
   1210   1219   1228     1   107.9700462 569.024000
   1213   1225   2518     1   107.9700462 569.024000
   1216   1222   2488     1   107.9700462 569.024000
   1222   2488   2479     1   112.4800480 524.673600
   1225   2518   2509     1   112.4800480 524.673600
   1230   1231   1243     1   114.2100488 537.225600
   1230   1234   1246     1   114.2100488 537.225600
   1230   1237   1240     1   114.2100488 537.225600
   1231   1230   1234     1   109.6600471 523.836800
   1231   1230   1237     1   109.6600471 523.836800
   1231   1243   1255     1   111.5100476 526.347200
   1234   1230   1237     1   109.6600471 523.836800
   1234   1246   1252     1   111.5100476 526.347200
   1237   1240   1249     1   111.5100476 526.347200
   1240   1249   1258     1   107.9700462 569.024000
   1243   1255   2578     1   107.9700462 569.024000
   1246   1252   2548     1   107.9700462 569.024000
   1252   2548   2539     1   112.4800480 524.673600
   1255   2578   2569     1   112.4800480 524.673600
   1260   1261   1273     1   114.2100488 537.225600
   1260   1264   1276     1   114.2100488 537.225600
   1260   1267   1270     1   114.2100488 537.225600
   1261   1260   1264     1   109.6600471 523.836800
   1261   1260   1267     1   109.6600471 523.836800
   1261   1273   1285     1   111.5100476 526.347200
   1264   1260   1267     1   109.6600471 523.836800
   1264   1276   1282     1   111.5100476 526.347200
   1267   1270   1279     1   111.5100476 526.347200
   1270   1279   1288     1   107.9700462 569.024000
   1273   1285   2638     1   107.9700462 569.024000
   1276   1282   2608     1   107.9700462 569.024000
   1282   2608   2599     1   112.4800480 524.673600
   1285   2638   2629     1   112.4800480 524.673600
   1290   1291   1303     1   114.2100488 537.225600
   1290   1294   1306     1   114.2100488 537.225600
   1290   1297   1300     1   114.2100488 537.225600
   1291   1290   1294     1   109.6600471 523.836800
   1291   1290   1297     1   109.6600471 523.836800
   1291   1303   1315     1   111.5100476 526.347200
   1294   1290   1297     1   109.6600471 523.836800
   1294   1306   1312     1   111.5100476 526.347200
   1297   1300   1309     1   111.5100476 526.347200
   1300   1309   1318     1   107.9700462 569.024000
   1303   1315   2698     1   107.9700462 569.024000
   1306   1312   2668     1   107.9700462 569.024000
   1312   2668   2659     1   112.4800480 524.673600
   1315   2698   2689     1   112.4800480 524.673600
   1320   1321   1333     1   114.2100488 537.225600
   1320   1324   1336     1   114.2100488 537.225600
   1320   1327   1330     1   114.2100488 537.225600
   1321   1320   1324     1   109.6600471 523.836800
   1321   1320   1327     1   109.6600471 523.836800
   1321   1333   1345     1   111.5100476 526.347200
   1324   1320   1327     1   109.6600471 523.836800
   1324   1336   1342     1   111.5100476 526.347200
   1327   1330   1339     1   111.5100476 526.347200
   1330   1339   1348     1   107.9700462 569.024000
   1333   1345   2758     1   107.9700462 569.024000
   1336   1342   2728     1   107.9700462 569.024000
   1342   2728   2719     1   112.4800480 524.673600
   1345   2758   2749     1   112.4800480 524.673600
   1350   1351   1363     1   114.2100488 537.225600
   1350   1354   1366     1   114.2100488 537.225600
   1350   1357   1360     1   114.2100488 537.225600
   1351   1350   1354     1   109.6600471 523.836800
   1351   1350   1357     1   109.6600471 523.836800
   1351   1363   1375     1   111.5100476 526.347200
   1354   1350   1357     1   109.6600471 523.836800
   1354   1366   1372     1   111.5100476 526.347200
   1357   1360   1369     1   111.5100476 526.347200
   1360   1369   1378     1   107.9700462 569.024000
   1363   1375   2818     1   107.9700462 569.024000
   1366   1372   2788     1   107.9700462 569.024000
   1372   2788   2779     1   112.4800480 524.673600
   1375   2818   2809     1   112.4800480 524.673600
   1380   1381   1393     1   114.2100488 537.225600
   1380   1384   1396     1   114.2100488 537.225600
   1380   1387   1390     1   114.2100488 537.225600
   1381   1380   1384     1   109.6600471 523.836800
   1381   1380   1387     1   109.6600471 523.836800
   1381   1393   1405     1   111.5100476 526.347200
   1384   1380   1387     1   109.6600471 523.836800
   1384   1396   1402     1   111.5100476 526.347200
   1387   1390   1399     1   111.5100476 526.347200
   1390   1399   1408     1   107.9700462 569.024000
   1393   1405   2846     1   107.9700462 569.024000
   1396   1402   2832     1   107.9700462 569.024000
   1402   2832   2826     1   112.4800480 524.673600
   1405   2846   2840     1   112.4800480 524.673600
   1410   1411   1423     1   114.2100488 537.225600
   1410   1414   1426     1   114.2100488 537.225600
   1410   1417   1420     1   114.2100488 537.225600
   1411   1410   1414     1   109.6600471 523.836800
   1411   1410   1417     1   109.6600471 523.836800
   1411   1423   1435     1   111.5100476 526.347200
   1414   1410   1417     1   109.6600471 523.836800
   1414   1426   1432     1   111.5100476 526.347200
   1417   1420   1429     1   111.5100476 526.347200
   1420   1429   1438     1   107.9700462 569.024000
   1423   1435   2874     1   107.9700462 569.024000
   1426   1432   2860     1   107.9700462 569.024000
   1432   2860   2854     1   112.4800480 524.673600
   1435   2874   2868     1   112.4800480 524.673600
   1440   1441   1453     1   114.2100488 537.225600
   1440   1444   1456     1   114.2100488 537.225600
   1440   1447   1450     1   114.2100488 537.225600
   1441   1440   1444     1   109.6600471 523.836800
   1441   1440   1447     1   109.6600471 523.836800
   1441   1453   1465     1   111.5100476 526.347200
   1444   1440   1447     1   109.6600471 523.836800
   1444   1456   1462     1   111.5100476 526.347200
   1447   1450   1459     1   111.5100476 526.347200
   1450   1459   1468     1   107.9700462 569.024000
   1453   1465   2902     1   107.9700462 569.024000
   1456   1462   2888     1   107.9700462 569.024000
   1462   2888   2882     1   112.4800480 524.673600
   1465   2902   2896     1   112.4800480 524.673600
   1470   1471   1483     1   114.2100488 537.225600
   1470   1474   1486     1   114.2100488 537.225600
   1470   1477   1480     1   114.2100488 537.225600
   1471   1470   1474     1   109.6600471 523.836800
   1471   1470   1477     1   109.6600471 523.836800
   1471   1483   1495     1   111.5100476 526.347200
   1474   1470   1477     1   109.6600471 523.836800
   1474   1486   1492     1   111.5100476 526.347200
   1477   1480   1489     1   111.5100476 526.347200
   1480   1489   1498     1   107.9700462 569.024000
   1483   1495   2930     1   107.9700462 569.024000
   1486   1492   2916     1   107.9700462 569.024000
   1492   2916   2910     1   112.4800480 524.673600
   1495   2930   2924     1   112.4800480 524.673600
   1500   1501   1513     1   114.2100488 537.225600
   1500   1504   1516     1   114.2100488 537.225600
   1500   1507   1510     1   114.2100488 537.225600
   1501   1500   1504     1   109.6600471 523.836800
   1501   1500   1507     1   109.6600471 523.836800
   1501   1513   1525     1   111.5100476 526.347200
   1504   1500   1507     1   109.6600471 523.836800
   1504   1516   1522     1   111.5100476 526.347200
   1507   1510   1519     1   111.5100476 526.347200
   1510   1519   1528     1   107.9700462 569.024000
   1513   1525   2958     1   107.9700462 569.024000
   1516   1522   2944     1   107.9700462 569.024000
   1522   2944   2938     1   112.4800480 524.673600
   1525   2958   2952     1   112.4800480 524.673600
   1530   1531   1543     1   114.2100488 537.225600
   1530   1534   1546     1   114.2100488 537.225600
   1530   1537   1540     1   114.2100488 537.225600
   1531   1530   1534     1   109.6600471 523.836800
   1531   1530   1537     1   109.6600471 523.836800
   1531   1543   1555     1   111.5100476 526.347200
   1534   1530   1537     1   109.6600471 523.836800
   1534   1546   1552     1   111.5100476 526.347200
   1537   1540   1549     1   111.5100476 526.347200
   1540   1549   1558     1   107.9700462 569.024000
   1543   1555   2986     1   107.9700462 569.024000
   1546   1552   2972     1   107.9700462 569.024000
   1552   2972   2966     1   112.4800480 524.673600
   1555   2986   2980     1   112.4800480 524.673600
   1560   1561   1573     1   114.2100488 537.225600
   1560   1564   1576     1   114.2100488 537.225600
   1560   1567   1570     1   114.2100488 537.225600
   1561   1560   1564     1   109.6600471 523.836800
   1561   1560   1567     1   109.6600471 523.836800
   1561   1573   1585     1   111.5100476 526.347200
   1564   1560   1567     1   109.6600471 523.836800
   1564   1576   1582     1   111.5100476 526.347200
   1567   1570   1579     1   111.5100476 526.347200
   1570   1579   1588     1   107.9700462 569.024000
   1573   1585   3014     1   107.9700462 569.024000
   1576   1582   3000     1   107.9700462 569.024000
   1582   3000   2994     1   112.4800480 524.673600
   1585   3014   3008     1   112.4800480 524.673600
   1590   1591   1603     1   114.2100488 537.225600
   1590   1594   1606     1   114.2100488 537.225600
   1590   1597   1600     1   114.2100488 537.225600
   1591   1590   1594     1   109.6600471 523.836800
   1591   1590   1597     1   109.6600471 523.836800
   1591   1603   1615     1   111.5100476 526.347200
   1594   1590   1597     1   109.6600471 523.836800
   1594   1606   1612     1   111.5100476 526.347200
   1597   1600   1609     1   111.5100476 526.347200
   1600   1609   1618     1   107.9700462 569.024000
   1603   1615   3042     1   107.9700462 569.024000
   1606   1612   3028     1   107.9700462 569.024000
   1612   3028   3022     1   112.4800480 524.673600
   1615   3042   3036     1   112.4800480 524.673600
   1620   1621   1633     1   114.2100488 537.225600
   1620   1624   1636     1   114.2100488 537.225600
   1620   1627   1630     1   114.2100488 537.225600
   1621   1620   1624     1   109.6600471 523.836800
   1621   1620   1627     1   109.6600471 523.836800
   1621   1633   1645     1   111.5100476 526.347200
   1624   1620   1627     1   109.6600471 523.836800
   1624   1636   1642     1   111.5100476 526.347200
   1627   1630   1639     1   111.5100476 526.347200
   1630   1639   1648     1   107.9700462 569.024000
   1633   1645   3070     1   107.9700462 569.024000
   1636   1642   3056     1   107.9700462 569.024000
   1642   3056   3050     1   112.4800480 524.673600
   1645   3070   3064     1   112.4800480 524.673600
   1650   1651   1663     1   114.2100488 537.225600
   1650   1654   1666     1   114.2100488 537.225600
   1650   1657   1660     1   114.2100488 537.225600
   1651   1650   1654     1   109.6600471 523.836800
   1651   1650   1657     1   109.6600471 523.836800
   1651   1663   1675     1   111.5100476 526.347200
   1654   1650   1657     1   109.6600471 523.836800
   1654   1666   1672     1   111.5100476 526.347200
   1657   1660   1669     1   111.5100476 526.347200
   1660   1669   1678     1   107.9700462 569.024000
   1663   1675   3098     1   107.9700462 569.024000
   1666   1672   3084     1   107.9700462 569.024000
   1672   3084   3078     1   112.4800480 524.673600
   1675   3098   3092     1   112.4800480 524.673600
   1680   1681   1693     1   114.2100488 537.225600
   1680   1684   1696     1   114.2100488 537.225600
   1680   1687   1690     1   114.2100488 537.225600
   1681   1680   1684     1   109.6600471 523.836800
   1681   1680   1687     1   109.6600471 523.836800
   1681   1693   1705     1   111.5100476 526.347200
   1684   1680   1687     1   109.6600471 523.836800
   1684   1696   1702     1   111.5100476 526.347200
   1687   1690   1699     1   111.5100476 526.347200
   1690   1699   1708     1   107.9700462 569.024000
   1693   1705   3126     1   107.9700462 569.024000
   1696   1702   3112     1   107.9700462 569.024000
   1702   3112   3106     1   112.4800480 524.673600
   1705   3126   3120     1   112.4800480 524.673600
   1710   1711   1723     1   114.2100488 537.225600
   1710   1714   1726     1   114.2100488 537.225600
   1710   1717   1720     1   114.2100488 537.225600
   1711   1710   1714     1   109.6600471 523.836800
   1711   1710   1717     1   109.6600471 523.836800
   1711   1723   1735     1   111.5100476 526.347200
   1714   1710   1717     1   109.6600471 523.836800
   1714   1726   1732     1   111.5100476 526.347200
   1717   1720   1729     1   111.5100476 526.347200
   1720   1729   1738     1   107.9700462 569.024000
   1723   1735   3154     1   107.9700462 569.024000
   1726   1732   3140     1   107.9700462 569.024000
   1732   3140   3134     1   112.4800480 524.673600
   1735   3154   3148     1   112.4800480 524.673600
   1740   1741   1753     1   114.2100488 537.225600
   1740   1744   1756     1   114.2100488 537.225600
   1740   1747   1750     1   114.2100488 537.225600
   1741   1740   1744     1   109.6600471 523.836800
   1741   1740   1747     1   109.6600471 523.836800
   1741   1753   1765     1   111.5100476 526.347200
   1744   1740   1747     1   109.6600471 523.836800
   1744   1756   1762     1   111.5100476 526.347200
   1747   1750   1759     1   111.5100476 526.347200
   1750   1759   1768     1   107.9700462 569.024000
   1753   1765   3182     1   107.9700462 569.024000
   1756   1762   3168     1   107.9700462 569.024000
   1762   3168   3162     1   112.4800480 524.673600
   1765   3182   3176     1   112.4800480 524.673600
   1770   1771   1783     1   114.2100488 537.225600
   1770   1774   1786     1   114.2100488 537.225600
   1770   1777   1780     1   114.2100488 537.225600
   1771   1770   1774     1   109.6600471 523.836800
   1771   1770   1777     1   109.6600471 523.836800
   1771   1783   1795     1   111.5100476 526.347200
   1774   1770   1777     1   109.6600471 523.836800
   1774   1786   1792     1   111.5100476 526.347200
   1777   1780   1789     1   111.5100476 526.347200
   1780   1789   1798     1   107.9700462 569.024000
   1783   1795   3210     1   107.9700462 569.024000
   1786   1792   3196     1   107.9700462 569.024000
   1792   3196   3190     1   112.4800480 524.673600
   1795   3210   3204     1   112.4800480 524.673600
   1800   1801   1813     1   114.2100488 537.225600
   1800   1804   1816     1   114.2100488 537.225600
   1800   1807   1810     1   114.2100488 537.225600
   1801   1800   1804     1   109.6600471 523.836800
   1801   1800   1807     1   109.6600471 523.836800
   1801   1813   1825     1   111.5100476 526.347200
   1804   1800   1807     1   109.6600471 523.836800
   1804   1816   1822     1   111.5100476 526.347200
   1807   1810   1819     1   111.5100476 526.347200
   1810   1819   1828     1   107.9700462 569.024000
   1813   1825   3238     1   107.9700462 569.024000
   1816   1822   3224     1   107.9700462 569.024000
   1822   3224   3218     1   112.4800480 524.673600
   1825   3238   3232     1   112.4800480 524.673600
   1830   1831   1843     1   114.2100488 537.225600
   1830   1834   1846     1   114.2100488 537.225600
   1830   1837   1840     1   114.2100488 537.225600
   1831   1830   1834     1   109.6600471 523.836800
   1831   1830   1837     1   109.6600471 523.836800
   1831   1843   1855     1   111.5100476 526.347200
   1834   1830   1837     1   109.6600471 523.836800
   1834   1846   1852     1   111.5100476 526.347200
   1837   1840   1849     1   111.5100476 526.347200
   1840   1849   1858     1   107.9700462 569.024000
   1843   1855   3266     1   107.9700462 569.024000
   1846   1852   3252     1   107.9700462 569.024000
   1852   3252   3246     1   112.4800480 524.673600
   1855   3266   3260     1   112.4800480 524.673600
   1860   1861   1873     1   114.2100488 537.225600
   1860   1864   1876     1   114.2100488 537.225600
   1860   1867   1870     1   114.2100488 537.225600
   1861   1860   1864     1   109.6600471 523.836800
   1861   1860   1867     1   109.6600471 523.836800
   1861   1873   1885     1   111.5100476 526.347200
   1864   1860   1867     1   109.6600471 523.836800
   1864   1876   1882     1   111.5100476 526.347200
   1867   1870   1879     1   111.5100476 526.347200
   1870   1879   1888     1   107.9700462 569.024000
   1873   1885   3294     1   107.9700462 569.024000
   1876   1882   3280     1   107.9700462 569.024000
   1882   3280   3274     1   112.4800480 524.673600
   1885   3294   3288     1   112.4800480 524.673600
   1890   1891   1903     1   114.2100488 537.225600
   1890   1894   1906     1   114.2100488 537.225600
   1890   1897   1900     1   114.2100488 537.225600
   1891   1890   1894     1   109.6600471 523.836800
   1891   1890   1897     1   109.6600471 523.836800
   1891   1903   1915     1   111.5100476 526.347200
   1894   1890   1897     1   109.6600471 523.836800
   1894   1906   1912     1   111.5100476 526.347200
   1897   1900   1909     1   111.5100476 526.347200
   1900   1909   1918     1   107.9700462 569.024000
   1903   1915   3322     1   107.9700462 569.024000
   1906   1912   3308     1   107.9700462 569.024000
   1912   3308   3302     1   112.4800480 524.673600
   1915   3322   3316     1   112.4800480 524.673600
   1920   1921   1933     1   114.2100488 537.225600
   1920   1924   1936     1   114.2100488 537.225600
   1920   1927   1930     1   114.2100488 537.225600
   1921   1920   1924     1   109.6600471 523.836800
   1921   1920   1927     1   109.6600471 523.836800
   1921   1933   1945     1   111.5100476 526.347200
   1924   1920   1927     1   109.6600471 523.836800
   1924   1936   1942     1   111.5100476 526.347200
   1927   1930   1939     1   111.5100476 526.347200
   1930   1939   1948     1   107.9700462 569.024000
   1933   1945   3350     1   107.9700462 569.024000
   1936   1942   3336     1   107.9700462 569.024000
   1942   3336   3330     1   112.4800480 524.673600
   1945   3350   3344     1   112.4800480 524.673600
   1950   1951   1963     1   114.2100488 537.225600
   1950   1954   1966     1   114.2100488 537.225600
   1950   1957   1960     1   114.2100488 537.225600
   1951   1950   1954     1   109.6600471 523.836800
   1951   1950   1957     1   109.6600471 523.836800
   1951   1963   1975     1   111.5100476 526.347200
   1954   1950   1957     1   109.6600471 523.836800
   1954   1966   1972     1   111.5100476 526.347200
   1957   1960   1969     1   111.5100476 526.347200
   1960   1969   1978     1   107.9700462 569.024000
   1963   1975   3378     1   107.9700462 569.024000
   1966   1972   3364     1   107.9700462 569.024000
   1972   3364   3358     1   112.4800480 524.673600
   1975   3378   3372     1   112.4800480 524.673600
   1980   1981   1993     1   114.2100488 537.225600
   1980   1984   1996     1   114.2100488 537.225600
   1980   1987   1990     1   114.2100488 537.225600
   1981   1980   1984     1   109.6600471 523.836800
   1981   1980   1987     1   109.6600471 523.836800
   1981   1993   2005     1   111.5100476 526.347200
   1984   1980   1987     1   109.6600471 523.836800
   1984   1996   2002     1   111.5100476 526.347200
   1987   1990   1999     1   111.5100476 526.347200
   1990   1999   2008     1   107.9700462 569.024000
   1993   2005   3406     1   107.9700462 569.024000
   1996   2002   3392     1   107.9700462 569.024000
   2002   3392   3386     1   112.4800480 524.673600
   2005   3406   3400     1   112.4800480 524.673600
   2010   2011   2023     1   114.2100488 537.225600
   2010   2014   2026     1   114.2100488 537.225600
   2010   2017   2020     1   114.2100488 537.225600
   2011   2010   2014     1   109.6600471 523.836800
   2011   2010   2017     1   109.6600471 523.836800
   2011   2023   2035     1   111.5100476 526.347200
   2014   2010   2017     1   109.6600471 523.836800
   2014   2026   2032     1   111.5100476 526.347200
   2017   2020   2029     1   111.5100476 526.347200
   2020   2029   2038     1   107.9700462 569.024000
   2023   2035   3434     1   107.9700462 569.024000
   2026   2032   3420     1   107.9700462 569.024000
   2032   3420   3414     1   112.4800480 524.673600
   2035   3434   3428     1   112.4800480 524.673600
   2040   2041   2053     1   114.2100488 537.225600
   2040   2044   2056     1   114.2100488 537.225600
   2040   2047   2050     1   114.2100488 537.225600
   2041   2040   2044     1   109.6600471 523.836800
   2041   2040   2047     1   109.6600471 523.836800
   2041   2053   2065     1   111.5100476 526.347200
   2044   2040   2047     1   109.6600471 523.836800
   2044   2056   2062     1   111.5100476 526.347200
   2047   2050   2059     1   111.5100476 526.347200
   2050   2059   2068     1   107.9700462 569.024000
   2053   2065   3462     1   107.9700462 569.024000
   2056   2062   3448     1   107.9700462 569.024000
   2062   3448   3442     1   112.4800480 524.673600
   2065   3462   3456     1   112.4800480 524.673600
   2070   2071   2083     1   114.2100488 537.225600
   2070   2074   2086     1   114.2100488 537.225600
   2070   2077   2080     1   114.2100488 537.225600
   2071   2070   2074     1   109.6600471 523.836800
   2071   2070   2077     1   109.6600471 523.836800
   2071   2083   2095     1   111.5100476 526.347200
   2074   2070   2077     1   109.6600471 523.836800
   2074   2086   2092     1   111.5100476 526.347200
   2077   2080   2089     1   111.5100476 526.347200
   2080   2089   2098     1   107.9700462 569.024000
   2083   2095   3490     1   107.9700462 569.024000
   2086   2092   3476     1   107.9700462 569.024000
   2092   3476   3470     1   112.4800480 524.673600
   2095   3490   3484     1   112.4800480 524.673600
   2100   2101   2113     1   114.2100488 537.225600
   2100   2104   2116     1   114.2100488 537.225600
   2100   2107   2110     1   114.2100488 537.225600
   2101   2100   2104     1   109.6600471 523.836800
   2101   2100   2107     1   109.6600471 523.836800
   2101   2113   2125     1   111.5100476 526.347200
   2104   2100   2107     1   109.6600471 523.836800
   2104   2116   2122     1   111.5100476 526.347200
   2107   2110   2119     1   111.5100476 526.347200
   2110   2119   2128     1   107.9700462 569.024000
   2113   2125   3518     1   107.9700462 569.024000
   2116   2122   3504     1   107.9700462 569.024000
   2122   3504   3498     1   112.4800480 524.673600
   2125   3518   3512     1   112.4800480 524.673600
   2130   2131   2143     1   114.2100488 537.225600
   2130   2134   2146     1   114.2100488 537.225600
   2130   2137   2140     1   114.2100488 537.225600
   2131   2130   2134     1   109.6600471 523.836800
   2131   2130   2137     1   109.6600471 523.836800
   2131   2143   2155     1   111.5100476 526.347200
   2134   2130   2137     1   109.6600471 523.836800
   2134   2146   2152     1   111.5100476 526.347200
   2137   2140   2149     1   111.5100476 526.347200
   2140   2149   2158     1   107.9700462 569.024000
   2143   2155   3546     1   107.9700462 569.024000
   2146   2152   3532     1   107.9700462 569.024000
   2152   3532   3526     1   112.4800480 524.673600
   2155   3546   3540     1   112.4800480 524.673600
   2160   2161   2173     1   114.2100488 537.225600
   2160   2164   2176     1   114.2100488 537.225600
   2160   2167   2170     1   114.2100488 537.225600
   2161   2160   2164     1   109.6600471 523.836800
   2161   2160   2167     1   109.6600471 523.836800
   2161   2173   2185     1   111.5100476 526.347200
   2164   2160   2167     1   109.6600471 523.836800
   2164   2176   2182     1   111.5100476 526.347200
   2167   2170   2179     1   111.5100476 526.347200
   2170   2179   2188     1   107.9700462 569.024000
   2173   2185   3574     1   107.9700462 569.024000
   2176   2182   3560     1   107.9700462 569.024000
   2182   3560   3554     1   112.4800480 524.673600
   2185   3574   3568     1   112.4800480 524.673600
   2190   2191   2203     1   114.2100488 537.225600
   2190   2194   2206     1   114.2100488 537.225600
   2190   2197   2200     1   114.2100488 537.225600
   2191   2190   2194     1   109.6600471 523.836800
   2191   2190   2197     1   109.6600471 523.836800
   2191   2203   2215     1   111.5100476 526.347200
   2194   2190   2197     1   109.6600471 523.836800
   2194   2206   2212     1   111.5100476 526.347200
   2197   2200   2209     1   111.5100476 526.347200
   2200   2209   2218     1   107.9700462 569.024000
   2203   2215   3602     1   107.9700462 569.024000
   2206   2212   3588     1   107.9700462 569.024000
   2212   3588   3582     1   112.4800480 524.673600
   2215   3602   3596     1   112.4800480 524.673600
   2220   2221   2233     1   114.2100488 537.225600
   2220   2224   2236     1   114.2100488 537.225600
   2220   2227   2230     1   114.2100488 537.225600
   2221   2220   2224     1   109.6600471 523.836800
   2221   2220   2227     1   109.6600471 523.836800
   2221   2233   2245     1   111.5100476 526.347200
   2224   2220   2227     1   109.6600471 523.836800
   2224   2236   2242     1   111.5100476 526.347200
   2227   2230   2239     1   111.5100476 526.347200
   2230   2239   2248     1   107.9700462 569.024000
   2233   2245   3630     1   107.9700462 569.024000
   2236   2242   3616     1   107.9700462 569.024000
   2242   3616   3610     1   112.4800480 524.673600
   2245   3630   3624     1   112.4800480 524.673600
   2250   2251   2263     1   114.2100488 537.225600
   2250   2254   2266     1   114.2100488 537.225600
   2250   2257   2260     1   114.2100488 537.225600
   2251   2250   2254     1   109.6600471 523.836800
   2251   2250   2257     1   109.6600471 523.836800
   2251   2263   2275     1   111.5100476 526.347200
   2254   2250   2257     1   109.6600471 523.836800
   2254   2266   2272     1   111.5100476 526.347200
   2257   2260   2269     1   111.5100476 526.347200
   2260   2269   2278     1   107.9700462 569.024000
   2263   2275   3658     1   107.9700462 569.024000
   2266   2272   3644     1   107.9700462 569.024000
   2272   3644   3638     1   112.4800480 524.673600
   2275   3658   3652     1   112.4800480 524.673600
   2280   2281   2293     1   114.2100488 537.225600
   2280   2284   2296     1   114.2100488 537.225600
   2280   2287   2290     1   114.2100488 537.225600
   2281   2280   2284     1   109.6600471 523.836800
   2281   2280   2287     1   109.6600471 523.836800
   2281   2293   2305     1   111.5100476 526.347200
   2284   2280   2287     1   109.6600471 523.836800
   2284   2296   2302     1   111.5100476 526.347200
   2287   2290   2299     1   111.5100476 526.347200
   2290   2299   2308     1   107.9700462 569.024000
   2293   2305   3686     1   107.9700462 569.024000
   2296   2302   3672     1   107.9700462 569.024000
   2302   3672   3666     1   112.4800480 524.673600
   2305   3686   3680     1   112.4800480 524.673600
   2310   2311   2323     1   114.2100488 537.225600
   2310   2314   2326     1   114.2100488 537.225600
   2310   2317   2320     1   114.2100488 537.225600
   2311   2310   2314     1   109.6600471 523.836800
   2311   2310   2317     1   109.6600471 523.836800
   2311   2323   2335     1   111.5100476 526.347200
   2314   2310   2317     1   109.6600471 523.836800
   2314   2326   2332     1   111.5100476 526.347200
   2317   2320   2329     1   111.5100476 526.347200
   2320   2329   2338     1   107.9700462 569.024000
   2323   2335   3714     1   107.9700462 569.024000
   2326   2332   3700     1   107.9700462 569.024000
   2332   3700   3694     1   112.4800480 524.673600
   2335   3714   3708     1   112.4800480 524.673600
   2340   2341   2353     1   114.2100488 537.225600
   2340   2344   2356     1   114.2100488 537.225600
   2340   2347   2350     1   114.2100488 537.225600
   2341   2340   2344     1   109.6600471 523.836800
   2341   2340   2347     1   109.6600471 523.836800
   2341   2353   2365     1   111.5100476 526.347200
   2344   2340   2347     1   109.6600471 523.836800
   2344   2356   2362     1   111.5100476 526.347200
   2347   2350   2359     1   111.5100476 526.347200
   2350   2359   2368     1   107.9700462 569.024000
   2353   2365   3742     1   107.9700462 569.024000
   2356   2362   3728     1   107.9700462 569.024000
   2362   3728   3722     1   112.4800480 524.673600
   2365   3742   3736     1   112.4800480 524.673600
   2370   2371   2383     1   114.2100488 537.225600
   2370   2374   2386     1   114.2100488 537.225600
   2370   2377   2380     1   114.2100488 537.225600
   2371   2370   2374     1   109.6600471 523.836800
   2371   2370   2377     1   109.6600471 523.836800
   2371   2383   2395     1   111.5100476 526.347200
   2374   2370   2377     1   109.6600471 523.836800
   2374   2386   2392     1   111.5100476 526.347200
   2377   2380   2389     1   111.5100476 526.347200
   2380   2389   2398     1   107.9700462 569.024000
   2383   2395   3770     1   107.9700462 569.024000
   2386   2392   3756     1   107.9700462 569.024000
   2392   3756   3750     1   112.4800480 524.673600
   2395   3770   3764     1   112.4800480 524.673600
   2400   2401   2413     1   114.2100488 537.225600
   2400   2404   2416     1   114.2100488 537.225600
   2400   2407   2410     1   114.2100488 537.225600
   2401   2400   2404     1   109.6600471 523.836800
   2401   2400   2407     1   109.6600471 523.836800
   2401   2413   2425     1   111.5100476 526.347200
   2404   2400   2407     1   109.6600471 523.836800
   2404   2416   2422     1   111.5100476 526.347200
   2407   2410   2419     1   111.5100476 526.347200
   2410   2419   2428     1   107.9700462 569.024000
   2413   2425   3798     1   107.9700462 569.024000
   2416   2422   3784     1   107.9700462 569.024000
   2422   3784   3778     1   112.4800480 524.673600
   2425   3798   3792     1   112.4800480 524.673600
   2430   2431   2443     1   114.2100488 537.225600
   2430   2434   2446     1   114.2100488 537.225600
   2430   2437   2440     1   114.2100488 537.225600
   2431   2430   2434     1   109.6600471 523.836800
   2431   2430   2437     1   109.6600471 523.836800
   2431   2443   2455     1   111.5100476 526.347200
   2434   2430   2437     1   109.6600471 523.836800
   2434   2446   2452     1   111.5100476 526.347200
   2437   2440   2449     1   111.5100476 526.347200
   2440   2449   2458     1   107.9700462 569.024000
   2443   2455   3826     1   107.9700462 569.024000
   2446   2452   3812     1   107.9700462 569.024000
   2452   3812   3806     1   112.4800480 524.673600
   2455   3826   3820     1   112.4800480 524.673600
   2460   2461   2473     1   114.2100488 537.225600
   2460   2464   2476     1   114.2100488 537.225600
   2460   2467   2470     1   114.2100488 537.225600
   2461   2460   2464     1   109.6600471 523.836800
   2461   2460   2467     1   109.6600471 523.836800
   2461   2473   2485     1   111.5100476 526.347200
   2464   2460   2467     1   109.6600471 523.836800
   2464   2476   2482     1   111.5100476 526.347200
   2467   2470   2479     1   111.5100476 526.347200
   2470   2479   2488     1   107.9700462 569.024000
   2473   2485   3854     1   107.9700462 569.024000
   2476   2482   3840     1   107.9700462 569.024000
   2482   3840   3834     1   112.4800480 524.673600
   2485   3854   3848     1   112.4800480 524.673600
   2490   2491   2503     1   114.2100488 537.225600
   2490   2494   2506     1   114.2100488 537.225600
   2490   2497   2500     1   114.2100488 537.225600
   2491   2490   2494     1   109.6600471 523.836800
   2491   2490   2497     1   109.6600471 523.836800
   2491   2503   2515     1   111.5100476 526.347200
   2494   2490   2497     1   109.6600471 523.836800
   2494   2506   2512     1   111.5100476 526.347200
   2497   2500   2509     1   111.5100476 526.347200
   2500   2509   2518     1   107.9700462 569.024000
   2503   2515   3882     1   107.9700462 569.024000
   2506   2512   3868     1   107.9700462 569.024000
   2512   3868   3862     1   112.4800480 524.673600
   2515   3882   3876     1   112.4800480 524.673600
   2520   2521   2533     1   114.2100488 537.225600
   2520   2524   2536     1   114.2100488 537.225600
   2520   2527   2530     1   114.2100488 537.225600
   2521   2520   2524     1   109.6600471 523.836800
   2521   2520   2527     1   109.6600471 523.836800
   2521   2533   2545     1   111.5100476 526.347200
   2524   2520   2527     1   109.6600471 523.836800
   2524   2536   2542     1   111.5100476 526.347200
   2527   2530   2539     1   111.5100476 526.347200
   2530   2539   2548     1   107.9700462 569.024000
   2533   2545   3910     1   107.9700462 569.024000
   2536   2542   3896     1   107.9700462 569.024000
   2542   3896   3890     1   112.4800480 524.673600
   2545   3910   3904     1   112.4800480 524.673600
   2550   2551   2563     1   114.2100488 537.225600
   2550   2554   2566     1   114.2100488 537.225600
   2550   2557   2560     1   114.2100488 537.225600
   2551   2550   2554     1   109.6600471 523.836800
   2551   2550   2557     1   109.6600471 523.836800
   2551   2563   2575     1   111.5100476 526.347200
   2554   2550   2557     1   109.6600471 523.836800
   2554   2566   2572     1   111.5100476 526.347200
   2557   2560   2569     1   111.5100476 526.347200
   2560   2569   2578     1   107.9700462 569.024000
   2563   2575   3938     1   107.9700462 569.024000
   2566   2572   3924     1   107.9700462 569.024000
   2572   3924   3918     1   112.4800480 524.673600
   2575   3938   3932     1   112.4800480 524.673600
   2580   2581   2593     1   114.2100488 537.225600
   2580   2584   2596     1   114.2100488 537.225600
   2580   2587   2590     1   114.2100488 537.225600
   2581   2580   2584     1   109.6600471 523.836800
   2581   2580   2587     1   109.6600471 523.836800
   2581   2593   2605     1   111.5100476 526.347200
   2584   2580   2587     1   109.6600471 523.836800
   2584   2596   2602     1   111.5100476 526.347200
   2587   2590   2599     1   111.5100476 526.347200
   2590   2599   2608     1   107.9700462 569.024000
   2593   2605   3966     1   107.9700462 569.024000
   2596   2602   3952     1   107.9700462 569.024000
   2602   3952   3946     1   112.4800480 524.673600
   2605   3966   3960     1   112.4800480 524.673600
   2610   2611   2623     1   114.2100488 537.225600
   2610   2614   2626     1   114.2100488 537.225600
   2610   2617   2620     1   114.2100488 537.225600
   2611   2610   2614     1   109.6600471 523.836800
   2611   2610   2617     1   109.6600471 523.836800
   2611   2623   2635     1   111.5100476 526.347200
   2614   2610   2617     1   109.6600471 523.836800
   2614   2626   2632     1   111.5100476 526.347200
   2617   2620   2629     1   111.5100476 526.347200
   2620   2629   2638     1   107.9700462 569.024000
   2623   2635   3994     1   107.9700462 569.024000
   2626   2632   3980     1   107.9700462 569.024000
   2632   3980   3974     1   112.4800480 524.673600
   2635   3994   3988     1   112.4800480 524.673600
   2640   2641   2653     1   114.2100488 537.225600
   2640   2644   2656     1   114.2100488 537.225600
   2640   2647   2650     1   114.2100488 537.225600
   2641   2640   2644     1   109.6600471 523.836800
   2641   2640   2647     1   109.6600471 523.836800
   2641   2653   2665     1   111.5100476 526.347200
   2644   2640   2647     1   109.6600471 523.836800
   2644   2656   2662     1   111.5100476 526.347200
   2647   2650   2659     1   111.5100476 526.347200
   2650   2659   2668     1   107.9700462 569.024000
   2653   2665   4022     1   107.9700462 569.024000
   2656   2662   4008     1   107.9700462 569.024000
   2662   4008   4002     1   112.4800480 524.673600
   2665   4022   4016     1   112.4800480 524.673600
   2670   2671   2683     1   114.2100488 537.225600
   2670   2674   2686     1   114.2100488 537.225600
   2670   2677   2680     1   114.2100488 537.225600
   2671   2670   2674     1   109.6600471 523.836800
   2671   2670   2677     1   109.6600471 523.836800
   2671   2683   2695     1   111.5100476 526.347200
   2674   2670   2677     1   109.6600471 523.836800
   2674   2686   2692     1   111.5100476 526.347200
   2677   2680   2689     1   111.5100476 526.347200
   2680   2689   2698     1   107.9700462 569.024000
   2683   2695   4050     1   107.9700462 569.024000
   2686   2692   4036     1   107.9700462 569.024000
   2692   4036   4030     1   112.4800480 524.673600
   2695   4050   4044     1   112.4800480 524.673600
   2700   2701   2713     1   114.2100488 537.225600
   2700   2704   2716     1   114.2100488 537.225600
   2700   2707   2710     1   114.2100488 537.225600
   2701   2700   2704     1   109.6600471 523.836800
   2701   2700   2707     1   109.6600471 523.836800
   2701   2713   2725     1   111.5100476 526.347200
   2704   2700   2707     1   109.6600471 523.836800
   2704   2716   2722     1   111.5100476 526.347200
   2707   2710   2719     1   111.5100476 526.347200
   2710   2719   2728     1   107.9700462 569.024000
   2713   2725   4078     1   107.9700462 569.024000
   2716   2722   4064     1   107.9700462 569.024000
   2722   4064   4058     1   112.4800480 524.673600
   2725   4078   4072     1   112.4800480 524.673600
   2730   2731   2743     1   114.2100488 537.225600
   2730   2734   2746     1   114.2100488 537.225600
   2730   2737   2740     1   114.2100488 537.225600
   2731   2730   2734     1   109.6600471 523.836800
   2731   2730   2737     1   109.6600471 523.836800
   2731   2743   2755     1   111.5100476 526.347200
   2734   2730   2737     1   109.6600471 523.836800
   2734   2746   2752     1   111.5100476 526.347200
   2737   2740   2749     1   111.5100476 526.347200
   2740   2749   2758     1   107.9700462 569.024000
   2743   2755   4106     1   107.9700462 569.024000
   2746   2752   4092     1   107.9700462 569.024000
   2752   4092   4086     1   112.4800480 524.673600
   2755   4106   4100     1   112.4800480 524.673600
   2760   2761   2773     1   114.2100488 537.225600
   2760   2764   2776     1   114.2100488 537.225600
   2760   2767   2770     1   114.2100488 537.225600
   2761   2760   2764     1   109.6600471 523.836800
   2761   2760   2767     1   109.6600471 523.836800
   2761   2773   2785     1   111.5100476 526.347200
   2764   2760   2767     1   109.6600471 523.836800
   2764   2776   2782     1   111.5100476 526.347200
   2767   2770   2779     1   111.5100476 526.347200
   2770   2779   2788     1   107.9700462 569.024000
   2773   2785   4134     1   107.9700462 569.024000
   2776   2782   4120     1   107.9700462 569.024000
   2782   4120   4114     1   112.4800480 524.673600
   2785   4134   4128     1   112.4800480 524.673600
   2790   2791   2803     1   114.2100488 537.225600
   2790   2794   2806     1   114.2100488 537.225600
   2790   2797   2800     1   114.2100488 537.225600
   2791   2790   2794     1   109.6600471 523.836800
   2791   2790   2797     1   109.6600471 523.836800
   2791   2803   2815     1   111.5100476 526.347200
   2794   2790   2797     1   109.6600471 523.836800
   2794   2806   2812     1   111.5100476 526.347200
   2797   2800   2809     1   111.5100476 526.347200
   2800   2809   2818     1   107.9700462 569.024000
   2803   2815   4162     1   107.9700462 569.024000
   2806   2812   4148     1   107.9700462 569.024000
   2812   4148   4142     1   112.4800480 524.673600
   2815   4162   4156     1   112.4800480 524.673600
   2820   2823   2826     1   111.5100476 526.347200
   2823   2820   2829     1   114.2100488 537.225600
   2823   2826   2832     1   107.9700462 569.024000
   2834   2837   2840     1   111.5100476 526.347200
   2837   2840   2846     1   107.9700462 569.024000
   2837   2834   2843     1   114.2100488 537.225600
   2848   2851   2854     1   111.5100476 526.347200
   2851   2848   2857     1   114.2100488 537.225600
   2851   2854   2860     1   107.9700462 569.024000
   2862   2865   2868     1   111.5100476 526.347200
   2865   2868   2874     1   107.9700462 569.024000
   2865   2862   2871     1   114.2100488 537.225600
   2876   2879   2882     1   111.5100476 526.347200
   2879   2876   2885     1   114.2100488 537.225600
   2879   2882   2888     1   107.9700462 569.024000
   2890   2893   2896     1   111.5100476 526.347200
   2893   2896   2902     1   107.9700462 569.024000
   2893   2890   2899     1   114.2100488 537.225600
   2904   2907   2910     1   111.5100476 526.347200
   2907   2904   2913     1   114.2100488 537.225600
   2907   2910   2916     1   107.9700462 569.024000
   2918   2921   2924     1   111.5100476 526.347200
   2921   2924   2930     1   107.9700462 569.024000
   2921   2918   2927     1   114.2100488 537.225600
   2932   2935   2938     1   111.5100476 526.347200
   2935   2932   2941     1   114.2100488 537.225600
   2935   2938   2944     1   107.9700462 569.024000
   2946   2949   2952     1   111.5100476 526.347200
   2949   2952   2958     1   107.9700462 569.024000
   2949   2946   2955     1   114.2100488 537.225600
   2960   2963   2966     1   111.5100476 526.347200
   2963   2960   2969     1   114.2100488 537.225600
   2963   2966   2972     1   107.9700462 569.024000
   2974   2977   2980     1   111.5100476 526.347200
   2977   2980   2986     1   107.9700462 569.024000
   2977   2974   2983     1   114.2100488 537.225600
   2988   2991   2994     1   111.5100476 526.347200
   2991   2988   2997     1   114.2100488 537.225600
   2991   2994   3000     1   107.9700462 569.024000
   3002   3005   3008     1   111.5100476 526.347200
   3005   3008   3014     1   107.9700462 569.024000
   3005   3002   3011     1   114.2100488 537.225600
   3016   3019   3022     1   111.5100476 526.347200
   3019   3016   3025     1   114.2100488 537.225600
   3019   3022   3028     1   107.9700462 569.024000
   3030   3033   3036     1   111.5100476 526.347200
   3033   3036   3042     1   107.9700462 569.024000
   3033   3030   3039     1   114.2100488 537.225600
   3044   3047   3050     1   111.5100476 526.347200
   3047   3044   3053     1   114.2100488 537.225600
   3047   3050   3056     1   107.9700462 569.024000
   3058   3061   3064     1   111.5100476 526.347200
   3061   3064   3070     1   107.9700462 569.024000
   3061   3058   3067     1   114.2100488 537.225600
   3072   3075   3078     1   111.5100476 526.347200
   3075   3072   3081     1   114.2100488 537.225600
   3075   3078   3084     1   107.9700462 569.024000
   3086   3089   3092     1   111.5100476 526.347200
   3089   3092   3098     1   107.9700462 569.024000
   3089   3086   3095     1   114.2100488 537.225600
   3100   3103   3106     1   111.5100476 526.347200
   3103   3100   3109     1   114.2100488 537.225600
   3103   3106   3112     1   107.9700462 569.024000
   3114   3117   3120     1   111.5100476 526.347200
   3117   3120   3126     1   107.9700462 569.024000
   3117   3114   3123     1   114.2100488 537.225600
   3128   3131   3134     1   111.5100476 526.347200
   3131   3128   3137     1   114.2100488 537.225600
   3131   3134   3140     1   107.9700462 569.024000
   3142   3145   3148     1   111.5100476 526.347200
   3145   3148   3154     1   107.9700462 569.024000
   3145   3142   3151     1   114.2100488 537.225600
   3156   3159   3162     1   111.5100476 526.347200
   3159   3156   3165     1   114.2100488 537.225600
   3159   3162   3168     1   107.9700462 569.024000
   3170   3173   3176     1   111.5100476 526.347200
   3173   3176   3182     1   107.9700462 569.024000
   3173   3170   3179     1   114.2100488 537.225600
   3184   3187   3190     1   111.5100476 526.347200
   3187   3184   3193     1   114.2100488 537.225600
   3187   3190   3196     1   107.9700462 569.024000
   3198   3201   3204     1   111.5100476 526.347200
   3201   3204   3210     1   107.9700462 569.024000
   3201   3198   3207     1   114.2100488 537.225600
   3212   3215   3218     1   111.5100476 526.347200
   3215   3212   3221     1   114.2100488 537.225600
   3215   3218   3224     1   107.9700462 569.024000
   3226   3229   3232     1   111.5100476 526.347200
   3229   3232   3238     1   107.9700462 569.024000
   3229   3226   3235     1   114.2100488 537.225600
   3240   3243   3246     1   111.5100476 526.347200
   3243   3240   3249     1   114.2100488 537.225600
   3243   3246   3252     1   107.9700462 569.024000
   3254   3257   3260     1   111.5100476 526.347200
   3257   3260   3266     1   107.9700462 569.024000
   3257   3254   3263     1   114.2100488 537.225600
   3268   3271   3274     1   111.5100476 526.347200
   3271   3268   3277     1   114.2100488 537.225600
   3271   3274   3280     1   107.9700462 569.024000
   3282   3285   3288     1   111.5100476 526.347200
   3285   3288   3294     1   107.9700462 569.024000
   3285   3282   3291     1   114.2100488 537.225600
   3296   3299   3302     1   111.5100476 526.347200
   3299   3296   3305     1   114.2100488 537.225600
   3299   3302   3308     1   107.9700462 569.024000
   3310   3313   3316     1   111.5100476 526.347200
   3313   3316   3322     1   107.9700462 569.024000
   3313   3310   3319     1   114.2100488 537.225600
   3324   3327   3330     1   111.5100476 526.347200
   3327   3324   3333     1   114.2100488 537.225600
   3327   3330   3336     1   107.9700462 569.024000
   3338   3341   3344     1   111.5100476 526.347200
   3341   3344   3350     1   107.9700462 569.024000
   3341   3338   3347     1   114.2100488 537.225600
   3352   3355   3358     1   111.5100476 526.347200
   3355   3352   3361     1   114.2100488 537.225600
   3355   3358   3364     1   107.9700462 569.024000
   3366   3369   3372     1   111.5100476 526.347200
   3369   3372   3378     1   107.9700462 569.024000
   3369   3366   3375     1   114.2100488 537.225600
   3380   3383   3386     1   111.5100476 526.347200
   3383   3380   3389     1   114.2100488 537.225600
   3383   3386   3392     1   107.9700462 569.024000
   3394   3397   3400     1   111.5100476 526.347200
   3397   3400   3406     1   107.9700462 569.024000
   3397   3394   3403     1   114.2100488 537.225600
   3408   3411   3414     1   111.5100476 526.347200
   3411   3408   3417     1   114.2100488 537.225600
   3411   3414   3420     1   107.9700462 569.024000
   3422   3425   3428     1   111.5100476 526.347200
   3425   3428   3434     1   107.9700462 569.024000
   3425   3422   3431     1   114.2100488 537.225600
   3436   3439   3442     1   111.5100476 526.347200
   3439   3436   3445     1   114.2100488 537.225600
   3439   3442   3448     1   107.9700462 569.024000
   3450   3453   3456     1   111.5100476 526.347200
   3453   3456   3462     1   107.9700462 569.024000
   3453   3450   3459     1   114.2100488 537.225600
   3464   3467   3470     1   111.5100476 526.347200
   3467   3464   3473     1   114.2100488 537.225600
   3467   3470   3476     1   107.9700462 569.024000
   3478   3481   3484     1   111.5100476 526.347200
   3481   3484   3490     1   107.9700462 569.024000
   3481   3478   3487     1   114.2100488 537.225600
   3492   3495   3498     1   111.5100476 526.347200
   3495   3492   3501     1   114.2100488 537.225600
   3495   3498   3504     1   107.9700462 569.024000
   3506   3509   3512     1   111.5100476 526.347200
   3509   3512   3518     1   107.9700462 569.024000
   3509   3506   3515     1   114.2100488 537.225600
   3520   3523   3526     1   111.5100476 526.347200
   3523   3520   3529     1   114.2100488 537.225600
   3523   3526   3532     1   107.9700462 569.024000
   3534   3537   3540     1   111.5100476 526.347200
   3537   3540   3546     1   107.9700462 569.024000
   3537   3534   3543     1   114.2100488 537.225600
   3548   3551   3554     1   111.5100476 526.347200
   3551   3548   3557     1   114.2100488 537.225600
   3551   3554   3560     1   107.9700462 569.024000
   3562   3565   3568     1   111.5100476 526.347200
   3565   3568   3574     1   107.9700462 569.024000
   3565   3562   3571     1   114.2100488 537.225600
   3576   3579   3582     1   111.5100476 526.347200
   3579   3576   3585     1   114.2100488 537.225600
   3579   3582   3588     1   107.9700462 569.024000
   3590   3593   3596     1   111.5100476 526.347200
   3593   3596   3602     1   107.9700462 569.024000
   3593   3590   3599     1   114.2100488 537.225600
   3604   3607   3610     1   111.5100476 526.347200
   3607   3604   3613     1   114.2100488 537.225600
   3607   3610   3616     1   107.9700462 569.024000
   3618   3621   3624     1   111.5100476 526.347200
   3621   3624   3630     1   107.9700462 569.024000
   3621   3618   3627     1   114.2100488 537.225600
   3632   3635   3638     1   111.5100476 526.347200
   3635   3632   3641     1   114.2100488 537.225600
   3635   3638   3644     1   107.9700462 569.024000
   3646   3649   3652     1   111.5100476 526.347200
   3649   3652   3658     1   107.9700462 569.024000
   3649   3646   3655     1   114.2100488 537.225600
   3660   3663   3666     1   111.5100476 526.347200
   3663   3660   3669     1   114.2100488 537.225600
   3663   3666   3672     1   107.9700462 569.024000
   3674   3677   3680     1   111.5100476 526.347200
   3677   3680   3686     1   107.9700462 569.024000
   3677   3674   3683     1   114.2100488 537.225600
   3688   3691   3694     1   111.5100476 526.347200
   3691   3688   3697     1   114.2100488 537.225600
   3691   3694   3700     1   107.9700462 569.024000
   3702   3705   3708     1   111.5100476 526.347200
   3705   3708   3714     1   107.9700462 569.024000
   3705   3702   3711     1   114.2100488 537.225600
   3716   3719   3722     1   111.5100476 526.347200
   3719   3716   3725     1   114.2100488 537.225600
   3719   3722   3728     1   107.9700462 569.024000
   3730   3733   3736     1   111.5100476 526.347200
   3733   3736   3742     1   107.9700462 569.024000
   3733   3730   3739     1   114.2100488 537.225600
   3744   3747   3750     1   111.5100476 526.347200
   3747   3744   3753     1   114.2100488 537.225600
   3747   3750   3756     1   107.9700462 569.024000
   3758   3761   3764     1   111.5100476 526.347200
   3761   3764   3770     1   107.9700462 569.024000
   3761   3758   3767     1   114.2100488 537.225600
   3772   3775   3778     1   111.5100476 526.347200
   3775   3772   3781     1   114.2100488 537.225600
   3775   3778   3784     1   107.9700462 569.024000
   3786   3789   3792     1   111.5100476 526.347200
   3789   3792   3798     1   107.9700462 569.024000
   3789   3786   3795     1   114.2100488 537.225600
   3800   3803   3806     1   111.5100476 526.347200
   3803   3800   3809     1   114.2100488 537.225600
   3803   3806   3812     1   107.9700462 569.024000
   3814   3817   3820     1   111.5100476 526.347200
   3817   3820   3826     1   107.9700462 569.024000
   3817   3814   3823     1   114.2100488 537.225600
   3828   3831   3834     1   111.5100476 526.347200
   3831   3828   3837     1   114.2100488 537.225600
   3831   3834   3840     1   107.9700462 569.024000
   3842   3845   3848     1   111.5100476 526.347200
   3845   3848   3854     1   107.9700462 569.024000
   3845   3842   3851     1   114.2100488 537.225600
   3856   3859   3862     1   111.5100476 526.347200
   3859   3856   3865     1   114.2100488 537.225600
   3859   3862   3868     1   107.9700462 569.024000
   3870   3873   3876     1   111.5100476 526.347200
   3873   3876   3882     1   107.9700462 569.024000
   3873   3870   3879     1   114.2100488 537.225600
   3884   3887   3890     1   111.5100476 526.347200
   3887   3884   3893     1   114.2100488 537.225600
   3887   3890   3896     1   107.9700462 569.024000
   3898   3901   3904     1   111.5100476 526.347200
   3901   3904   3910     1   107.9700462 569.024000
   3901   3898   3907     1   114.2100488 537.225600
   3912   3915   3918     1   111.5100476 526.347200
   3915   3912   3921     1   114.2100488 537.225600
   3915   3918   3924     1   107.9700462 569.024000
   3926   3929   3932     1   111.5100476 526.347200
   3929   3932   3938     1   107.9700462 569.024000
   3929   3926   3935     1   114.2100488 537.225600
   3940   3943   3946     1   111.5100476 526.347200
   3943   3940   3949     1   114.2100488 537.225600
   3943   3946   3952     1   107.9700462 569.024000
   3954   3957   3960     1   111.5100476 526.347200
   3957   3960   3966     1   107.9700462 569.024000
   3957   3954   3963     1   114.2100488 537.225600
   3968   3971   3974     1   111.5100476 526.347200
   3971   3968   3977     1   114.2100488 537.225600
   3971   3974   3980     1   107.9700462 569.024000
   3982   3985   3988     1   111.5100476 526.347200
   3985   3988   3994     1   107.9700462 569.024000
   3985   3982   3991     1   114.2100488 537.225600
   3996   3999   4002     1   111.5100476 526.347200
   3999   3996   4005     1   114.2100488 537.225600
   3999   4002   4008     1   107.9700462 569.024000
   4010   4013   4016     1   111.5100476 526.347200
   4013   4016   4022     1   107.9700462 569.024000
   4013   4010   4019     1   114.2100488 537.225600
   4024   4027   4030     1   111.5100476 526.347200
   4027   4024   4033     1   114.2100488 537.225600
   4027   4030   4036     1   107.9700462 569.024000
   4038   4041   4044     1   111.5100476 526.347200
   4041   4044   4050     1   107.9700462 569.024000
   4041   4038   4047     1   114.2100488 537.225600
   4052   4055   4058     1   111.5100476 526.347200
   4055   4052   4061     1   114.2100488 537.225600
   4055   4058   4064     1   107.9700462 569.024000
   4066   4069   4072     1   111.5100476 526.347200
   4069   4072   4078     1   107.9700462 569.024000
   4069   4066   4075     1   114.2100488 537.225600
   4080   4083   4086     1   111.5100476 526.347200
   4083   4080   4089     1   114.2100488 537.225600
   4083   4086   4092     1   107.9700462 569.024000
   4094   4097   4100     1   111.5100476 526.347200
   4097   4100   4106     1   107.9700462 569.024000
   4097   4094   4103     1   114.2100488 537.225600
   4108   4111   4114     1   111.5100476 526.347200
   4111   4108   4117     1   114.2100488 537.225600
   4111   4114   4120     1   107.9700462 569.024000
   4122   4125   4128     1   111.5100476 526.347200
   4125   4128   4134     1   107.9700462 569.024000
   4125   4122   4131     1   114.2100488 537.225600
   4136   4139   4142     1   111.5100476 526.347200
   4139   4136   4145     1   114.2100488 537.225600
   4139   4142   4148     1   107.9700462 569.024000
   4150   4153   4156     1   111.5100476 526.347200
   4153   4156   4162     1   107.9700462 569.024000
   4153   4150   4159     1   114.2100488 537.225600
      1      2      3     1   108.0100461 406.684800
      1      2      4     1   108.0100461 406.684800
      1      5      6     1   108.0100461 406.684800
      1      5      7     1   108.0100461 406.684800
      1      8      9     1   108.0100461 406.684800
      1      8     10     1   108.0100461 406.684800
      2      1     29     1   110.1100470 384.091200
      2     14     15     1   109.8000471 387.438400
      2     14     16     1   109.8000471 387.438400
      3      2     14     1   110.5600475 386.601600
      3      2      4     1   109.7500473 328.025600
      4      2     14     1   110.5600475 386.601600
      5      1     29     1   110.1100470 384.091200
      5     17     18     1   109.8000471 387.438400
      5     17     19     1   109.8000471 387.438400
      6      5     17     1   110.5600475 386.601600
      6      5      7     1   109.7500473 328.025600
      7      5     17     1   110.5600475 386.601600
      8      1     29     1   110.1100470 384.091200
      8     11     12     1   109.8000471 387.438400
      8     11     13     1   109.8000471 387.438400
      9      8     11     1   110.5600475 386.601600
      9      8     10     1   109.7500473 328.025600
     10      8     11     1   110.5600475 386.601600
     11     23     24     1   109.5600471 388.275200
     11     23     25     1   109.5600471 388.275200
     12     11     23     1   109.8000471 387.438400
     12     11     13     1   107.5800459 329.699200
     13     11     23     1   109.8000471 387.438400
     14     26     27     1   109.5600471 388.275200
     14     26     28     1   109.5600471 388.275200
     15     14     26     1   109.8000471 387.438400
     15     14     16     1   107.5800459 329.699200
     16     14     26     1   109.8000471 387.438400
     17     20     21     1   109.5600471 388.275200
     17     20     22     1   109.5600471 388.275200
     18     17     20     1   109.8000471 387.438400
     18     17     19     1   107.5800459 329.699200
     19     17     20     1   109.8000471 387.438400
     21     20     58     1   109.7800468 425.094400
     21     20     22     1   108.4600466 328.025600
     22     20     58     1   109.7800468 425.094400
     24     23     88     1   109.7800468 425.094400
     24     23     25     1   108.4600466 328.025600
     25     23     88     1   109.7800468 425.094400
     27     26    118     1   109.7800468 425.094400
     27     26     28     1   108.4600466 328.025600
     28     26    118     1   109.7800468 425.094400
     30     31     32     1   108.0100461 406.684800
     30     31     33     1   108.0100461 406.684800
     30     34     35     1   108.0100461 406.684800
     30     34     36     1   108.0100461 406.684800
     30     37     38     1   108.0100461 406.684800
     30     37     39     1   108.0100461 406.684800
     31     30     59     1   110.1100470 384.091200
     31     43     44     1   109.8000471 387.438400
     31     43     45     1   109.8000471 387.438400
     32     31     43     1   110.5600475 386.601600
     32     31     33     1   109.7500473 328.025600
     33     31     43     1   110.5600475 386.601600
     34     30     59     1   110.1100470 384.091200
     34     46     47     1   109.8000471 387.438400
     34     46     48     1   109.8000471 387.438400
     35     34     46     1   110.5600475 386.601600
     35     34     36     1   109.7500473 328.025600
     36     34     46     1   110.5600475 386.601600
     37     30     59     1   110.1100470 384.091200
     37     40     41     1   109.8000471 387.438400
     37     40     42     1   109.8000471 387.438400
     38     37     40     1   110.5600475 386.601600
     38     37     39     1   109.7500473 328.025600
     39     37     40     1   110.5600475 386.601600
     40     49     50     1   109.5600471 388.275200
     40     49     51     1   109.5600471 388.275200
     41     40     49     1   109.8000471 387.438400
     41     40     42     1   107.5800459 329.699200
     42     40     49     1   109.8000471 387.438400
     43     55     56     1   109.5600471 388.275200
     43     55     57     1   109.5600471 388.275200
     44     43     55     1   109.8000471 387.438400
     44     43     45     1   107.5800459 329.699200
     45     43     55     1   109.8000471 387.438400
     46     52     53     1   109.5600471 388.275200
     46     52     54     1   109.5600471 388.275200
     47     46     52     1   109.8000471 387.438400
     47     46     48     1   107.5800459 329.699200
     48     46     52     1   109.8000471 387.438400
     50     49     58     1   109.7800468 425.094400
     50     49     51     1   108.4600466 328.025600
     51     49     58     1   109.7800468 425.094400
     53     52    148     1   109.7800468 425.094400
     53     52     54     1   108.4600466 328.025600
     54     52    148     1   109.7800468 425.094400
     56     55    178     1   109.7800468 425.094400
     56     55     57     1   108.4600466 328.025600
     57     55    178     1   109.7800468 425.094400
     60     61     62     1   108.0100461 406.684800
     60     61     63     1   108.0100461 406.684800
     60     64     65     1   108.0100461 406.684800
     60     64     66     1   108.0100461 406.684800
     60     67     68     1   108.0100461 406.684800
     60     67     69     1   108.0100461 406.684800
     61     60     89     1   110.1100470 384.091200
     61     73     74     1   109.8000471 387.438400
     61     73     75     1   109.8000471 387.438400
     62     61     73     1   110.5600475 386.601600
     62     61     63     1   109.7500473 328.025600
     63     61     73     1   110.5600475 386.601600
     64     60     89     1   110.1100470 384.091200
     64     76     77     1   109.8000471 387.438400
     64     76     78     1   109.8000471 387.438400
     65     64     76     1   110.5600475 386.601600
     65     64     66     1   109.7500473 328.025600
     66     64     76     1   110.5600475 386.601600
     67     60     89     1   110.1100470 384.091200
     67     70     71     1   109.8000471 387.438400
     67     70     72     1   109.8000471 387.438400
     68     67     70     1   110.5600475 386.601600
     68     67     69     1   109.7500473 328.025600
     69     67     70     1   110.5600475 386.601600
     70     79     80     1   109.5600471 388.275200
     70     79     81     1   109.5600471 388.275200
     71     70     79     1   109.8000471 387.438400
     71     70     72     1   107.5800459 329.699200
     72     70     79     1   109.8000471 387.438400
     73     85     86     1   109.5600471 388.275200
     73     85     87     1   109.5600471 388.275200
     74     73     85     1   109.8000471 387.438400
     74     73     75     1   107.5800459 329.699200
     75     73     85     1   109.8000471 387.438400
     76     82     83     1   109.5600471 388.275200
     76     82     84     1   109.5600471 388.275200
     77     76     82     1   109.8000471 387.438400
     77     76     78     1   107.5800459 329.699200
     78     76     82     1   109.8000471 387.438400
     80     79     88     1   109.7800468 425.094400
     80     79     81     1   108.4600466 328.025600
     81     79     88     1   109.7800468 425.094400
     83     82    208     1   109.7800468 425.094400
     83     82     84     1   108.4600466 328.025600
     84     82    208     1   109.7800468 425.094400
     86     85    238     1   109.7800468 425.094400
     86     85     87     1   108.4600466 328.025600
     87     85    238     1   109.7800468 425.094400
     90     91     92     1   108.0100461 406.684800
     90     91     93     1   108.0100461 406.684800
     90     94     95     1   108.0100461 406.684800
     90     94     96     1   108.0100461 406.684800
     90     97     98     1   108.0100461 406.684800
     90     97     99     1   108.0100461 406.684800
     91     90    119     1   110.1100470 384.091200
     91    103    104     1   109.8000471 387.438400
     91    103    105     1   109.8000471 387.438400
     92     91    103     1   110.5600475 386.601600
     92     91     93     1   109.7500473 328.025600
     93     91    103     1   110.5600475 386.601600
     94     90    119     1   110.1100470 384.091200
     94    106    107     1   109.8000471 387.438400
     94    106    108     1   109.8000471 387.438400
     95     94    106     1   110.5600475 386.601600
     95     94     96     1   109.7500473 328.025600
     96     94    106     1   110.5600475 386.601600
     97     90    119     1   110.1100470 384.091200
     97    100    101     1   109.8000471 387.438400
     97    100    102     1   109.8000471 387.438400
     98     97    100     1   110.5600475 386.601600
     98     97     99     1   109.7500473 328.025600
     99     97    100     1   110.5600475 386.601600
    100    109    110     1   109.5600471 388.275200
    100    109    111     1   109.5600471 388.275200
    101    100    109     1   109.8000471 387.438400
    101    100    102     1   107.5800459 329.699200
    102    100    109     1   109.8000471 387.438400
    103    115    116     1   109.5600471 388.275200
    103    115    117     1   109.5600471 388.275200
    104    103    115     1   109.8000471 387.438400
    104    103    105     1   107.5800459 329.699200
    105    103    115     1   109.8000471 387.438400
    106    112    113     1   109.5600471 388.275200
    106    112    114     1   109.5600471 388.275200
    107    106    112     1   109.8000471 387.438400
    107    106    108     1   107.5800459 329.699200
    108    106    112     1   109.8000471 387.438400
    110    109    118     1   109.7800468 425.094400
    110    109    111     1   108.4600466 328.025600
    111    109    118     1   109.7800468 425.094400
    113    112    268     1   109.7800468 425.094400
    113    112    114     1   108.4600466 328.025600
    114    112    268     1   109.7800468 425.094400
    116    115    298     1   109.7800468 425.094400
    116    115    117     1   108.4600466 328.025600
    117    115    298     1   109.7800468 425.094400
    120    121    122     1   108.0100461 406.684800
    120    121    123     1   108.0100461 406.684800
    120    124    125     1   108.0100461 406.684800
    120    124    126     1   108.0100461 406.684800
    120    127    128     1   108.0100461 406.684800
    120    127    129     1   108.0100461 406.684800
    121    120    149     1   110.1100470 384.091200
    121    133    134     1   109.8000471 387.438400
    121    133    135     1   109.8000471 387.438400
    122    121    133     1   110.5600475 386.601600
    122    121    123     1   109.7500473 328.025600
    123    121    133     1   110.5600475 386.601600
    124    120    149     1   110.1100470 384.091200
    124    136    137     1   109.8000471 387.438400
    124    136    138     1   109.8000471 387.438400
    125    124    136     1   110.5600475 386.601600
    125    124    126     1   109.7500473 328.025600
    126    124    136     1   110.5600475 386.601600
    127    120    149     1   110.1100470 384.091200
    127    130    131     1   109.8000471 387.438400
    127    130    132     1   109.8000471 387.438400
    128    127    130     1   110.5600475 386.601600
    128    127    129     1   109.7500473 328.025600
    129    127    130     1   110.5600475 386.601600
    130    139    140     1   109.5600471 388.275200
    130    139    141     1   109.5600471 388.275200
    131    130    139     1   109.8000471 387.438400
    131    130    132     1   107.5800459 329.699200
    132    130    139     1   109.8000471 387.438400
    133    145    146     1   109.5600471 388.275200
    133    145    147     1   109.5600471 388.275200
    134    133    145     1   109.8000471 387.438400
    134    133    135     1   107.5800459 329.699200
    135    133    145     1   109.8000471 387.438400
    136    142    143     1   109.5600471 388.275200
    136    142    144     1   109.5600471 388.275200
    137    136    142     1   109.8000471 387.438400
    137    136    138     1   107.5800459 329.699200
    138    136    142     1   109.8000471 387.438400
    140    139    148     1   109.7800468 425.094400
    140    139    141     1   108.4600466 328.025600
    141    139    148     1   109.7800468 425.094400
    143    142    328     1   109.7800468 425.094400
    143    142    144     1   108.4600466 328.025600
    144    142    328     1   109.7800468 425.094400
    146    145    358     1   109.7800468 425.094400
    146    145    147     1   108.4600466 328.025600
    147    145    358     1   109.7800468 425.094400
    150    151    152     1   108.0100461 406.684800
    150    151    153     1   108.0100461 406.684800
    150    154    155     1   108.0100461 406.684800
    150    154    156     1   108.0100461 406.684800
    150    157    158     1   108.0100461 406.684800
    150    157    159     1   108.0100461 406.684800
    151    150    179     1   110.1100470 384.091200
    151    163    164     1   109.8000471 387.438400
    151    163    165     1   109.8000471 387.438400
    152    151    163     1   110.5600475 386.601600
    152    151    153     1   109.7500473 328.025600
    153    151    163     1   110.5600475 386.601600
    154    150    179     1   110.1100470 384.091200
    154    166    167     1   109.8000471 387.438400
    154    166    168     1   109.8000471 387.438400
    155    154    166     1   110.5600475 386.601600
    155    154    156     1   109.7500473 328.025600
    156    154    166     1   110.5600475 386.601600
    157    150    179     1   110.1100470 384.091200
    157    160    161     1   109.8000471 387.438400
    157    160    162     1   109.8000471 387.438400
    158    157    160     1   110.5600475 386.601600
    158    157    159     1   109.7500473 328.025600
    159    157    160     1   110.5600475 386.601600
    160    169    170     1   109.5600471 388.275200
    160    169    171     1   109.5600471 388.275200
    161    160    169     1   109.8000471 387.438400
    161    160    162     1   107.5800459 329.699200
    162    160    169     1   109.8000471 387.438400
    163    175    176     1   109.5600471 388.275200
    163    175    177     1   109.5600471 388.275200
    164    163    175     1   109.8000471 387.438400
    164    163    165     1   107.5800459 329.699200
    165    163    175     1   109.8000471 387.438400
    166    172    173     1   109.5600471 388.275200
    166    172    174     1   109.5600471 388.275200
    167    166    172     1   109.8000471 387.438400
    167    166    168     1   107.5800459 329.699200
    168    166    172     1   109.8000471 387.438400
    170    169    178     1   109.7800468 425.094400
    170    169    171     1   108.4600466 328.025600
    171    169    178     1   109.7800468 425.094400
    173    172    388     1   109.7800468 425.094400
    173    172    174     1   108.4600466 328.025600
    174    172    388     1   109.7800468 425.094400
    176    175    418     1   109.7800468 425.094400
    176    175    177     1   108.4600466 328.025600
    177    175    418     1   109.7800468 425.094400
    180    181    182     1   108.0100461 406.684800
    180    181    183     1   108.0100461 406.684800
    180    184    185     1   108.0100461 406.684800
    180    184    186     1   108.0100461 406.684800
    180    187    188     1   108.0100461 406.684800
    180    187    189     1   108.0100461 406.684800
    181    180    209     1   110.1100470 384.091200
    181    193    194     1   109.8000471 387.438400
    181    193    195     1   109.8000471 387.438400
    182    181    193     1   110.5600475 386.601600
    182    181    183     1   109.7500473 328.025600
    183    181    193     1   110.5600475 386.601600
    184    180    209     1   110.1100470 384.091200
    184    196    197     1   109.8000471 387.438400
    184    196    198     1   109.8000471 387.438400
    185    184    196     1   110.5600475 386.601600
    185    184    186     1   109.7500473 328.025600
    186    184    196     1   110.5600475 386.601600
    187    180    209     1   110.1100470 384.091200
    187    190    191     1   109.8000471 387.438400
    187    190    192     1   109.8000471 387.438400
    188    187    190     1   110.5600475 386.601600
    188    187    189     1   109.7500473 328.025600
    189    187    190     1   110.5600475 386.601600
    190    199    200     1   109.5600471 388.275200
    190    199    201     1   109.5600471 388.275200
    191    190    199     1   109.8000471 387.438400
    191    190    192     1   107.5800459 329.699200
    192    190    199     1   109.8000471 387.438400
    193    205    206     1   109.5600471 388.275200
    193    205    207     1   109.5600471 388.275200
    194    193    205     1   109.8000471 387.438400
    194    193    195     1   107.5800459 329.699200
    195    193    205     1   109.8000471 387.438400
    196    202    203     1   109.5600471 388.275200
    196    202    204     1   109.5600471 388.275200
    197    196    202     1   109.8000471 387.438400
    197    196    198     1   107.5800459 329.699200
    198    196    202     1   109.8000471 387.438400
    200    199    208     1   109.7800468 425.094400
    200    199    201     1   108.4600466 328.025600
    201    199    208     1   109.7800468 425.094400
    203    202    448     1   109.7800468 425.094400
    203    202    204     1   108.4600466 328.025600
    204    202    448     1   109.7800468 425.094400
    206    205    478     1   109.7800468 425.094400
    206    205    207     1   108.4600466 328.025600
    207    205    478     1   109.7800468 425.094400
    210    211    212     1   108.0100461 406.684800
    210    211    213     1   108.0100461 406.684800
    210    214    215     1   108.0100461 406.684800
    210    214    216     1   108.0100461 406.684800
    210    217    218     1   108.0100461 406.684800
    210    217    219     1   108.0100461 406.684800
    211    210    239     1   110.1100470 384.091200
    211    223    224     1   109.8000471 387.438400
    211    223    225     1   109.8000471 387.438400
    212    211    223     1   110.5600475 386.601600
    212    211    213     1   109.7500473 328.025600
    213    211    223     1   110.5600475 386.601600
    214    210    239     1   110.1100470 384.091200
    214    226    227     1   109.8000471 387.438400
    214    226    228     1   109.8000471 387.438400
    215    214    226     1   110.5600475 386.601600
    215    214    216     1   109.7500473 328.025600
    216    214    226     1   110.5600475 386.601600
    217    210    239     1   110.1100470 384.091200
    217    220    221     1   109.8000471 387.438400
    217    220    222     1   109.8000471 387.438400
    218    217    220     1   110.5600475 386.601600
    218    217    219     1   109.7500473 328.025600
    219    217    220     1   110.5600475 386.601600
    220    229    230     1   109.5600471 388.275200
    220    229    231     1   109.5600471 388.275200
    221    220    229     1   109.8000471 387.438400
    221    220    222     1   107.5800459 329.699200
    222    220    229     1   109.8000471 387.438400
    223    235    236     1   109.5600471 388.275200
    223    235    237     1   109.5600471 388.275200
    224    223    235     1   109.8000471 387.438400
    224    223    225     1   107.5800459 329.699200
    225    223    235     1   109.8000471 387.438400
    226    232    233     1   109.5600471 388.275200
    226    232    234     1   109.5600471 388.275200
    227    226    232     1   109.8000471 387.438400
    227    226    228     1   107.5800459 329.699200
    228    226    232     1   109.8000471 387.438400
    230    229    238     1   109.7800468 425.094400
    230    229    231     1   108.4600466 328.025600
    231    229    238     1   109.7800468 425.094400
    233    232    508     1   109.7800468 425.094400
    233    232    234     1   108.4600466 328.025600
    234    232    508     1   109.7800468 425.094400
    236    235    538     1   109.7800468 425.094400
    236    235    237     1   108.4600466 328.025600
    237    235    538     1   109.7800468 425.094400
    240    241    242     1   108.0100461 406.684800
    240    241    243     1   108.0100461 406.684800
    240    244    245     1   108.0100461 406.684800
    240    244    246     1   108.0100461 406.684800
    240    247    248     1   108.0100461 406.684800
    240    247    249     1   108.0100461 406.684800
    241    240    269     1   110.1100470 384.091200
    241    253    254     1   109.8000471 387.438400
    241    253    255     1   109.8000471 387.438400
    242    241    253     1   110.5600475 386.601600
    242    241    243     1   109.7500473 328.025600
    243    241    253     1   110.5600475 386.601600
    244    240    269     1   110.1100470 384.091200
    244    256    257     1   109.8000471 387.438400
    244    256    258     1   109.8000471 387.438400
    245    244    256     1   110.5600475 386.601600
    245    244    246     1   109.7500473 328.025600
    246    244    256     1   110.5600475 386.601600
    247    240    269     1   110.1100470 384.091200
    247    250    251     1   109.8000471 387.438400
    247    250    252     1   109.8000471 387.438400
    248    247    250     1   110.5600475 386.601600
    248    247    249     1   109.7500473 328.025600
    249    247    250     1   110.5600475 386.601600
    250    259    260     1   109.5600471 388.275200
    250    259    261     1   109.5600471 388.275200
    251    250    259     1   109.8000471 387.438400
    251    250    252     1   107.5800459 329.699200
    252    250    259     1   109.8000471 387.438400
    253    265    266     1   109.5600471 388.275200
    253    265    267     1   109.5600471 388.275200
    254    253    265     1   109.8000471 387.438400
    254    253    255     1   107.5800459 329.699200
    255    253    265     1   109.8000471 387.438400
    256    262    263     1   109.5600471 388.275200
    256    262    264     1   109.5600471 388.275200
    257    256    262     1   109.8000471 387.438400
    257    256    258     1   107.5800459 329.699200
    258    256    262     1   109.8000471 387.438400
    260    259    268     1   109.7800468 425.094400
    260    259    261     1   108.4600466 328.025600
    261    259    268     1   109.7800468 425.094400
    263    262    568     1   109.7800468 425.094400
    263    262    264     1   108.4600466 328.025600
    264    262    568     1   109.7800468 425.094400
    266    265    598     1   109.7800468 425.094400
    266    265    267     1   108.4600466 328.025600
    267    265    598     1   109.7800468 425.094400
    270    271    272     1   108.0100461 406.684800
    270    271    273     1   108.0100461 406.684800
    270    274    275     1   108.0100461 406.684800
    270    274    276     1   108.0100461 406.684800
    270    277    278     1   108.0100461 406.684800
    270    277    279     1   108.0100461 406.684800
    271    270    299     1   110.1100470 384.091200
    271    283    284     1   109.8000471 387.438400
    271    283    285     1   109.8000471 387.438400
    272    271    283     1   110.5600475 386.601600
    272    271    273     1   109.7500473 328.025600
    273    271    283     1   110.5600475 386.601600
    274    270    299     1   110.1100470 384.091200
    274    286    287     1   109.8000471 387.438400
    274    286    288     1   109.8000471 387.438400
    275    274    286     1   110.5600475 386.601600
    275    274    276     1   109.7500473 328.025600
    276    274    286     1   110.5600475 386.601600
    277    270    299     1   110.1100470 384.091200
    277    280    281     1   109.8000471 387.438400
    277    280    282     1   109.8000471 387.438400
    278    277    280     1   110.5600475 386.601600
    278    277    279     1   109.7500473 328.025600
    279    277    280     1   110.5600475 386.601600
    280    289    290     1   109.5600471 388.275200
    280    289    291     1   109.5600471 388.275200
    281    280    289     1   109.8000471 387.438400
    281    280    282     1   107.5800459 329.699200
    282    280    289     1   109.8000471 387.438400
    283    295    296     1   109.5600471 388.275200
    283    295    297     1   109.5600471 388.275200
    284    283    295     1   109.8000471 387.438400
    284    283    285     1   107.5800459 329.699200
    285    283    295     1   109.8000471 387.438400
    286    292    293     1   109.5600471 388.275200
    286    292    294     1   109.5600471 388.275200
    287    286    292     1   109.8000471 387.438400
    287    286    288     1   107.5800459 329.699200
    288    286    292     1   109.8000471 387.438400
    290    289    298     1   109.7800468 425.094400
    290    289    291     1   108.4600466 328.025600
    291    289    298     1   109.7800468 425.094400
    293    292    628     1   109.7800468 425.094400
    293    292    294     1   108.4600466 328.025600
    294    292    628     1   109.7800468 425.094400
    296    295    658     1   109.7800468 425.094400
    296    295    297     1   108.4600466 328.025600
    297    295    658     1   109.7800468 425.094400
    300    301    302     1   108.0100461 406.684800
    300    301    303     1   108.0100461 406.684800
    300    304    305     1   108.0100461 406.684800
    300    304    306     1   108.0100461 406.684800
    300    307    308     1   108.0100461 406.684800
    300    307    309     1   108.0100461 406.684800
    301    300    329     1   110.1100470 384.091200
    301    313    314     1   109.8000471 387.438400
    301    313    315     1   109.8000471 387.438400
    302    301    313     1   110.5600475 386.601600
    302    301    303     1   109.7500473 328.025600
    303    301    313     1   110.5600475 386.601600
    304    300    329     1   110.1100470 384.091200
    304    316    317     1   109.8000471 387.438400
    304    316    318     1   109.8000471 387.438400
    305    304    316     1   110.5600475 386.601600
    305    304    306     1   109.7500473 328.025600
    306    304    316     1   110.5600475 386.601600
    307    300    329     1   110.1100470 384.091200
    307    310    311     1   109.8000471 387.438400
    307    310    312     1   109.8000471 387.438400
    308    307    310     1   110.5600475 386.601600
    308    307    309     1   109.7500473 328.025600
    309    307    310     1   110.5600475 386.601600
    310    319    320     1   109.5600471 388.275200
    310    319    321     1   109.5600471 388.275200
    311    310    319     1   109.8000471 387.438400
    311    310    312     1   107.5800459 329.699200
    312    310    319     1   109.8000471 387.438400
    313    325    326     1   109.5600471 388.275200
    313    325    327     1   109.5600471 388.275200
    314    313    325     1   109.8000471 387.438400
    314    313    315     1   107.5800459 329.699200
    315    313    325     1   109.8000471 387.438400
    316    322    323     1   109.5600471 388.275200
    316    322    324     1   109.5600471 388.275200
    317    316    322     1   109.8000471 387.438400
    317    316    318     1   107.5800459 329.699200
    318    316    322     1   109.8000471 387.438400
    320    319    328     1   109.7800468 425.094400
    320    319    321     1   108.4600466 328.025600
    321    319    328     1   109.7800468 425.094400
    323    322    688     1   109.7800468 425.094400
    323    322    324     1   108.4600466 328.025600
    324    322    688     1   109.7800468 425.094400
    326    325    718     1   109.7800468 425.094400
    326    325    327     1   108.4600466 328.025600
    327    325    718     1   109.7800468 425.094400
    330    331    332     1   108.0100461 406.684800
    330    331    333     1   108.0100461 406.684800
    330    334    335     1   108.0100461 406.684800
    330    334    336     1   108.0100461 406.684800
    330    337    338     1   108.0100461 406.684800
    330    337    339     1   108.0100461 406.684800
    331    330    359     1   110.1100470 384.091200
    331    343    344     1   109.8000471 387.438400
    331    343    345     1   109.8000471 387.438400
    332    331    343     1   110.5600475 386.601600
    332    331    333     1   109.7500473 328.025600
    333    331    343     1   110.5600475 386.601600
    334    330    359     1   110.1100470 384.091200
    334    346    347     1   109.8000471 387.438400
    334    346    348     1   109.8000471 387.438400
    335    334    346     1   110.5600475 386.601600
    335    334    336     1   109.7500473 328.025600
    336    334    346     1   110.5600475 386.601600
    337    330    359     1   110.1100470 384.091200
    337    340    341     1   109.8000471 387.438400
    337    340    342     1   109.8000471 387.438400
    338    337    340     1   110.5600475 386.601600
    338    337    339     1   109.7500473 328.025600
    339    337    340     1   110.5600475 386.601600
    340    349    350     1   109.5600471 388.275200
    340    349    351     1   109.5600471 388.275200
    341    340    349     1   109.8000471 387.438400
    341    340    342     1   107.5800459 329.699200
    342    340    349     1   109.8000471 387.438400
    343    355    356     1   109.5600471 388.275200
    343    355    357     1   109.5600471 388.275200
    344    343    355     1   109.8000471 387.438400
    344    343    345     1   107.5800459 329.699200
    345    343    355     1   109.8000471 387.438400
    346    352    353     1   109.5600471 388.275200
    346    352    354     1   109.5600471 388.275200
    347    346    352     1   109.8000471 387.438400
    347    346    348     1   107.5800459 329.699200
    348    346    352     1   109.8000471 387.438400
    350    349    358     1   109.7800468 425.094400
    350    349    351     1   108.4600466 328.025600
    351    349    358     1   109.7800468 425.094400
    353    352    748     1   109.7800468 425.094400
    353    352    354     1   108.4600466 328.025600
    354    352    748     1   109.7800468 425.094400
    356    355    778     1   109.7800468 425.094400
    356    355    357     1   108.4600466 328.025600
    357    355    778     1   109.7800468 425.094400
    360    361    362     1   108.0100461 406.684800
    360    361    363     1   108.0100461 406.684800
    360    364    365     1   108.0100461 406.684800
    360    364    366     1   108.0100461 406.684800
    360    367    368     1   108.0100461 406.684800
    360    367    369     1   108.0100461 406.684800
    361    360    389     1   110.1100470 384.091200
    361    373    374     1   109.8000471 387.438400
    361    373    375     1   109.8000471 387.438400
    362    361    373     1   110.5600475 386.601600
    362    361    363     1   109.7500473 328.025600
    363    361    373     1   110.5600475 386.601600
    364    360    389     1   110.1100470 384.091200
    364    376    377     1   109.8000471 387.438400
    364    376    378     1   109.8000471 387.438400
    365    364    376     1   110.5600475 386.601600
    365    364    366     1   109.7500473 328.025600
    366    364    376     1   110.5600475 386.601600
    367    360    389     1   110.1100470 384.091200
    367    370    371     1   109.8000471 387.438400
    367    370    372     1   109.8000471 387.438400
    368    367    370     1   110.5600475 386.601600
    368    367    369     1   109.7500473 328.025600
    369    367    370     1   110.5600475 386.601600
    370    379    380     1   109.5600471 388.275200
    370    379    381     1   109.5600471 388.275200
    371    370    379     1   109.8000471 387.438400
    371    370    372     1   107.5800459 329.699200
    372    370    379     1   109.8000471 387.438400
    373    385    386     1   109.5600471 388.275200
    373    385    387     1   109.5600471 388.275200
    374    373    385     1   109.8000471 387.438400
    374    373    375     1   107.5800459 329.699200
    375    373    385     1   109.8000471 387.438400
    376    382    383     1   109.5600471 388.275200
    376    382    384     1   109.5600471 388.275200
    377    376    382     1   109.8000471 387.438400
    377    376    378     1   107.5800459 329.699200
    378    376    382     1   109.8000471 387.438400
    380    379    388     1   109.7800468 425.094400
    380    379    381     1   108.4600466 328.025600
    381    379    388     1   109.7800468 425.094400
    383    382    808     1   109.7800468 425.094400
    383    382    384     1   108.4600466 328.025600
    384    382    808     1   109.7800468 425.094400
    386    385    838     1   109.7800468 425.094400
    386    385    387     1   108.4600466 328.025600
    387    385    838     1   109.7800468 425.094400
    390    391    392     1   108.0100461 406.684800
    390    391    393     1   108.0100461 406.684800
    390    394    395     1   108.0100461 406.684800
    390    394    396     1   108.0100461 406.684800
    390    397    398     1   108.0100461 406.684800
    390    397    399     1   108.0100461 406.684800
    391    390    419     1   110.1100470 384.091200
    391    403    404     1   109.8000471 387.438400
    391    403    405     1   109.8000471 387.438400
    392    391    403     1   110.5600475 386.601600
    392    391    393     1   109.7500473 328.025600
    393    391    403     1   110.5600475 386.601600
    394    390    419     1   110.1100470 384.091200
    394    406    407     1   109.8000471 387.438400
    394    406    408     1   109.8000471 387.438400
    395    394    406     1   110.5600475 386.601600
    395    394    396     1   109.7500473 328.025600
    396    394    406     1   110.5600475 386.601600
    397    390    419     1   110.1100470 384.091200
    397    400    401     1   109.8000471 387.438400
    397    400    402     1   109.8000471 387.438400
    398    397    400     1   110.5600475 386.601600
    398    397    399     1   109.7500473 328.025600
    399    397    400     1   110.5600475 386.601600
    400    409    410     1   109.5600471 388.275200
    400    409    411     1   109.5600471 388.275200
    401    400    409     1   109.8000471 387.438400
    401    400    402     1   107.5800459 329.699200
    402    400    409     1   109.8000471 387.438400
    403    415    416     1   109.5600471 388.275200
    403    415    417     1   109.5600471 388.275200
    404    403    415     1   109.8000471 387.438400
    404    403    405     1   107.5800459 329.699200
    405    403    415     1   109.8000471 387.438400
    406    412    413     1   109.5600471 388.275200
    406    412    414     1   109.5600471 388.275200
    407    406    412     1   109.8000471 387.438400
    407    406    408     1   107.5800459 329.699200
    408    406    412     1   109.8000471 387.438400
    410    409    418     1   109.7800468 425.094400
    410    409    411     1   108.4600466 328.025600
    411    409    418     1   109.7800468 425.094400
    413    412    868     1   109.7800468 425.094400
    413    412    414     1   108.4600466 328.025600
    414    412    868     1   109.7800468 425.094400
    416    415    898     1   109.7800468 425.094400
    416    415    417     1   108.4600466 328.025600
    417    415    898     1   109.7800468 425.094400
    420    421    422     1   108.0100461 406.684800
    420    421    423     1   108.0100461 406.684800
    420    424    425     1   108.0100461 406.684800
    420    424    426     1   108.0100461 406.684800
    420    427    428     1   108.0100461 406.684800
    420    427    429     1   108.0100461 406.684800
    421    420    449     1   110.1100470 384.091200
    421    433    434     1   109.8000471 387.438400
    421    433    435     1   109.8000471 387.438400
    422    421    433     1   110.5600475 386.601600
    422    421    423     1   109.7500473 328.025600
    423    421    433     1   110.5600475 386.601600
    424    420    449     1   110.1100470 384.091200
    424    436    437     1   109.8000471 387.438400
    424    436    438     1   109.8000471 387.438400
    425    424    436     1   110.5600475 386.601600
    425    424    426     1   109.7500473 328.025600
    426    424    436     1   110.5600475 386.601600
    427    420    449     1   110.1100470 384.091200
    427    430    431     1   109.8000471 387.438400
    427    430    432     1   109.8000471 387.438400
    428    427    430     1   110.5600475 386.601600
    428    427    429     1   109.7500473 328.025600
    429    427    430     1   110.5600475 386.601600
    430    439    440     1   109.5600471 388.275200
    430    439    441     1   109.5600471 388.275200
    431    430    439     1   109.8000471 387.438400
    431    430    432     1   107.5800459 329.699200
    432    430    439     1   109.8000471 387.438400
    433    445    446     1   109.5600471 388.275200
    433    445    447     1   109.5600471 388.275200
    434    433    445     1   109.8000471 387.438400
    434    433    435     1   107.5800459 329.699200
    435    433    445     1   109.8000471 387.438400
    436    442    443     1   109.5600471 388.275200
    436    442    444     1   109.5600471 388.275200
    437    436    442     1   109.8000471 387.438400
    437    436    438     1   107.5800459 329.699200
    438    436    442     1   109.8000471 387.438400
    440    439    448     1   109.7800468 425.094400
    440    439    441     1   108.4600466 328.025600
    441    439    448     1   109.7800468 425.094400
    443    442    928     1   109.7800468 425.094400
    443    442    444     1   108.4600466 328.025600
    444    442    928     1   109.7800468 425.094400
    446    445    958     1   109.7800468 425.094400
    446    445    447     1   108.4600466 328.025600
    447    445    958     1   109.7800468 425.094400
    450    451    452     1   108.0100461 406.684800
    450    451    453     1   108.0100461 406.684800
    450    454    455     1   108.0100461 406.684800
    450    454    456     1   108.0100461 406.684800
    450    457    458     1   108.0100461 406.684800
    450    457    459     1   108.0100461 406.684800
    451    450    479     1   110.1100470 384.091200
    451    463    464     1   109.8000471 387.438400
    451    463    465     1   109.8000471 387.438400
    452    451    463     1   110.5600475 386.601600
    452    451    453     1   109.7500473 328.025600
    453    451    463     1   110.5600475 386.601600
    454    450    479     1   110.1100470 384.091200
    454    466    467     1   109.8000471 387.438400
    454    466    468     1   109.8000471 387.438400
    455    454    466     1   110.5600475 386.601600
    455    454    456     1   109.7500473 328.025600
    456    454    466     1   110.5600475 386.601600
    457    450    479     1   110.1100470 384.091200
    457    460    461     1   109.8000471 387.438400
    457    460    462     1   109.8000471 387.438400
    458    457    460     1   110.5600475 386.601600
    458    457    459     1   109.7500473 328.025600
    459    457    460     1   110.5600475 386.601600
    460    469    470     1   109.5600471 388.275200
    460    469    471     1   109.5600471 388.275200
    461    460    469     1   109.8000471 387.438400
    461    460    462     1   107.5800459 329.699200
    462    460    469     1   109.8000471 387.438400
    463    475    476     1   109.5600471 388.275200
    463    475    477     1   109.5600471 388.275200
    464    463    475     1   109.8000471 387.438400
    464    463    465     1   107.5800459 329.699200
    465    463    475     1   109.8000471 387.438400
    466    472    473     1   109.5600471 388.275200
    466    472    474     1   109.5600471 388.275200
    467    466    472     1   109.8000471 387.438400
    467    466    468     1   107.5800459 329.699200
    468    466    472     1   109.8000471 387.438400
    470    469    478     1   109.7800468 425.094400
    470    469    471     1   108.4600466 328.025600
    471    469    478     1   109.7800468 425.094400
    473    472    988     1   109.7800468 425.094400
    473    472    474     1   108.4600466 328.025600
    474    472    988     1   109.7800468 425.094400
    476    475   1018     1   109.7800468 425.094400
    476    475    477     1   108.4600466 328.025600
    477    475   1018     1   109.7800468 425.094400
    480    481    482     1   108.0100461 406.684800
    480    481    483     1   108.0100461 406.684800
    480    484    485     1   108.0100461 406.684800
    480    484    486     1   108.0100461 406.684800
    480    487    488     1   108.0100461 406.684800
    480    487    489     1   108.0100461 406.684800
    481    480    509     1   110.1100470 384.091200
    481    493    494     1   109.8000471 387.438400
    481    493    495     1   109.8000471 387.438400
    482    481    493     1   110.5600475 386.601600
    482    481    483     1   109.7500473 328.025600
    483    481    493     1   110.5600475 386.601600
    484    480    509     1   110.1100470 384.091200
    484    496    497     1   109.8000471 387.438400
    484    496    498     1   109.8000471 387.438400
    485    484    496     1   110.5600475 386.601600
    485    484    486     1   109.7500473 328.025600
    486    484    496     1   110.5600475 386.601600
    487    480    509     1   110.1100470 384.091200
    487    490    491     1   109.8000471 387.438400
    487    490    492     1   109.8000471 387.438400
    488    487    490     1   110.5600475 386.601600
    488    487    489     1   109.7500473 328.025600
    489    487    490     1   110.5600475 386.601600
    490    499    500     1   109.5600471 388.275200
    490    499    501     1   109.5600471 388.275200
    491    490    499     1   109.8000471 387.438400
    491    490    492     1   107.5800459 329.699200
    492    490    499     1   109.8000471 387.438400
    493    505    506     1   109.5600471 388.275200
    493    505    507     1   109.5600471 388.275200
    494    493    505     1   109.8000471 387.438400
    494    493    495     1   107.5800459 329.699200
    495    493    505     1   109.8000471 387.438400
    496    502    503     1   109.5600471 388.275200
    496    502    504     1   109.5600471 388.275200
    497    496    502     1   109.8000471 387.438400
    497    496    498     1   107.5800459 329.699200
    498    496    502     1   109.8000471 387.438400
    500    499    508     1   109.7800468 425.094400
    500    499    501     1   108.4600466 328.025600
    501    499    508     1   109.7800468 425.094400
    503    502   1048     1   109.7800468 425.094400
    503    502    504     1   108.4600466 328.025600
    504    502   1048     1   109.7800468 425.094400
    506    505   1078     1   109.7800468 425.094400
    506    505    507     1   108.4600466 328.025600
    507    505   1078     1   109.7800468 425.094400
    510    511    512     1   108.0100461 406.684800
    510    511    513     1   108.0100461 406.684800
    510    514    515     1   108.0100461 406.684800
    510    514    516     1   108.0100461 406.684800
    510    517    518     1   108.0100461 406.684800
    510    517    519     1   108.0100461 406.684800
    511    510    539     1   110.1100470 384.091200
    511    523    524     1   109.8000471 387.438400
    511    523    525     1   109.8000471 387.438400
    512    511    523     1   110.5600475 386.601600
    512    511    513     1   109.7500473 328.025600
    513    511    523     1   110.5600475 386.601600
    514    510    539     1   110.1100470 384.091200
    514    526    527     1   109.8000471 387.438400
    514    526    528     1   109.8000471 387.438400
    515    514    526     1   110.5600475 386.601600
    515    514    516     1   109.7500473 328.025600
    516    514    526     1   110.5600475 386.601600
    517    510    539     1   110.1100470 384.091200
    517    520    521     1   109.8000471 387.438400
    517    520    522     1   109.8000471 387.438400
    518    517    520     1   110.5600475 386.601600
    518    517    519     1   109.7500473 328.025600
    519    517    520     1   110.5600475 386.601600
    520    529    530     1   109.5600471 388.275200
    520    529    531     1   109.5600471 388.275200
    521    520    529     1   109.8000471 387.438400
    521    520    522     1   107.5800459 329.699200
    522    520    529     1   109.8000471 387.438400
    523    535    536     1   109.5600471 388.275200
    523    535    537     1   109.5600471 388.275200
    524    523    535     1   109.8000471 387.438400
    524    523    525     1   107.5800459 329.699200
    525    523    535     1   109.8000471 387.438400
    526    532    533     1   109.5600471 388.275200
    526    532    534     1   109.5600471 388.275200
    527    526    532     1   109.8000471 387.438400
    527    526    528     1   107.5800459 329.699200
    528    526    532     1   109.8000471 387.438400
    530    529    538     1   109.7800468 425.094400
    530    529    531     1   108.4600466 328.025600
    531    529    538     1   109.7800468 425.094400
    533    532   1108     1   109.7800468 425.094400
    533    532    534     1   108.4600466 328.025600
    534    532   1108     1   109.7800468 425.094400
    536    535   1138     1   109.7800468 425.094400
    536    535    537     1   108.4600466 328.025600
    537    535   1138     1   109.7800468 425.094400
    540    541    542     1   108.0100461 406.684800
    540    541    543     1   108.0100461 406.684800
    540    544    545     1   108.0100461 406.684800
    540    544    546     1   108.0100461 406.684800
    540    547    548     1   108.0100461 406.684800
    540    547    549     1   108.0100461 406.684800
    541    540    569     1   110.1100470 384.091200
    541    553    554     1   109.8000471 387.438400
    541    553    555     1   109.8000471 387.438400
    542    541    553     1   110.5600475 386.601600
    542    541    543     1   109.7500473 328.025600
    543    541    553     1   110.5600475 386.601600
    544    540    569     1   110.1100470 384.091200
    544    556    557     1   109.8000471 387.438400
    544    556    558     1   109.8000471 387.438400
    545    544    556     1   110.5600475 386.601600
    545    544    546     1   109.7500473 328.025600
    546    544    556     1   110.5600475 386.601600
    547    540    569     1   110.1100470 384.091200
    547    550    551     1   109.8000471 387.438400
    547    550    552     1   109.8000471 387.438400
    548    547    550     1   110.5600475 386.601600
    548    547    549     1   109.7500473 328.025600
    549    547    550     1   110.5600475 386.601600
    550    559    560     1   109.5600471 388.275200
    550    559    561     1   109.5600471 388.275200
    551    550    559     1   109.8000471 387.438400
    551    550    552     1   107.5800459 329.699200
    552    550    559     1   109.8000471 387.438400
    553    565    566     1   109.5600471 388.275200
    553    565    567     1   109.5600471 388.275200
    554    553    565     1   109.8000471 387.438400
    554    553    555     1   107.5800459 329.699200
    555    553    565     1   109.8000471 387.438400
    556    562    563     1   109.5600471 388.275200
    556    562    564     1   109.5600471 388.275200
    557    556    562     1   109.8000471 387.438400
    557    556    558     1   107.5800459 329.699200
    558    556    562     1   109.8000471 387.438400
    560    559    568     1   109.7800468 425.094400
    560    559    561     1   108.4600466 328.025600
    561    559    568     1   109.7800468 425.094400
    563    562   1168     1   109.7800468 425.094400
    563    562    564     1   108.4600466 328.025600
    564    562   1168     1   109.7800468 425.094400
    566    565   1198     1   109.7800468 425.094400
    566    565    567     1   108.4600466 328.025600
    567    565   1198     1   109.7800468 425.094400
    570    571    572     1   108.0100461 406.684800
    570    571    573     1   108.0100461 406.684800
    570    574    575     1   108.0100461 406.684800
    570    574    576     1   108.0100461 406.684800
    570    577    578     1   108.0100461 406.684800
    570    577    579     1   108.0100461 406.684800
    571    570    599     1   110.1100470 384.091200
    571    583    584     1   109.8000471 387.438400
    571    583    585     1   109.8000471 387.438400
    572    571    583     1   110.5600475 386.601600
    572    571    573     1   109.7500473 328.025600
    573    571    583     1   110.5600475 386.601600
    574    570    599     1   110.1100470 384.091200
    574    586    587     1   109.8000471 387.438400
    574    586    588     1   109.8000471 387.438400
    575    574    586     1   110.5600475 386.601600
    575    574    576     1   109.7500473 328.025600
    576    574    586     1   110.5600475 386.601600
    577    570    599     1   110.1100470 384.091200
    577    580    581     1   109.8000471 387.438400
    577    580    582     1   109.8000471 387.438400
    578    577    580     1   110.5600475 386.601600
    578    577    579     1   109.7500473 328.025600
    579    577    580     1   110.5600475 386.601600
    580    589    590     1   109.5600471 388.275200
    580    589    591     1   109.5600471 388.275200
    581    580    589     1   109.8000471 387.438400
    581    580    582     1   107.5800459 329.699200
    582    580    589     1   109.8000471 387.438400
    583    595    596     1   109.5600471 388.275200
    583    595    597     1   109.5600471 388.275200
    584    583    595     1   109.8000471 387.438400
    584    583    585     1   107.5800459 329.699200
    585    583    595     1   109.8000471 387.438400
    586    592    593     1   109.5600471 388.275200
    586    592    594     1   109.5600471 388.275200
    587    586    592     1   109.8000471 387.438400
    587    586    588     1   107.5800459 329.699200
    588    586    592     1   109.8000471 387.438400
    590    589    598     1   109.7800468 425.094400
    590    589    591     1   108.4600466 328.025600
    591    589    598     1   109.7800468 425.094400
    593    592   1228     1   109.7800468 425.094400
    593    592    594     1   108.4600466 328.025600
    594    592   1228     1   109.7800468 425.094400
    596    595   1258     1   109.7800468 425.094400
    596    595    597     1   108.4600466 328.025600
    597    595   1258     1   109.7800468 425.094400
    600    601    602     1   108.0100461 406.684800
    600    601    603     1   108.0100461 406.684800
    600    604    605     1   108.0100461 406.684800
    600    604    606     1   108.0100461 406.684800
    600    607    608     1   108.0100461 406.684800
    600    607    609     1   108.0100461 406.684800
    601    600    629     1   110.1100470 384.091200
    601    613    614     1   109.8000471 387.438400
    601    613    615     1   109.8000471 387.438400
    602    601    613     1   110.5600475 386.601600
    602    601    603     1   109.7500473 328.025600
    603    601    613     1   110.5600475 386.601600
    604    600    629     1   110.1100470 384.091200
    604    616    617     1   109.8000471 387.438400
    604    616    618     1   109.8000471 387.438400
    605    604    616     1   110.5600475 386.601600
    605    604    606     1   109.7500473 328.025600
    606    604    616     1   110.5600475 386.601600
    607    600    629     1   110.1100470 384.091200
    607    610    611     1   109.8000471 387.438400
    607    610    612     1   109.8000471 387.438400
    608    607    610     1   110.5600475 386.601600
    608    607    609     1   109.7500473 328.025600
    609    607    610     1   110.5600475 386.601600
    610    619    620     1   109.5600471 388.275200
    610    619    621     1   109.5600471 388.275200
    611    610    619     1   109.8000471 387.438400
    611    610    612     1   107.5800459 329.699200
    612    610    619     1   109.8000471 387.438400
    613    625    626     1   109.5600471 388.275200
    613    625    627     1   109.5600471 388.275200
    614    613    625     1   109.8000471 387.438400
    614    613    615     1   107.5800459 329.699200
    615    613    625     1   109.8000471 387.438400
    616    622    623     1   109.5600471 388.275200
    616    622    624     1   109.5600471 388.275200
    617    616    622     1   109.8000471 387.438400
    617    616    618     1   107.5800459 329.699200
    618    616    622     1   109.8000471 387.438400
    620    619    628     1   109.7800468 425.094400
    620    619    621     1   108.4600466 328.025600
    621    619    628     1   109.7800468 425.094400
    623    622   1288     1   109.7800468 425.094400
    623    622    624     1   108.4600466 328.025600
    624    622   1288     1   109.7800468 425.094400
    626    625   1318     1   109.7800468 425.094400
    626    625    627     1   108.4600466 328.025600
    627    625   1318     1   109.7800468 425.094400
    630    631    632     1   108.0100461 406.684800
    630    631    633     1   108.0100461 406.684800
    630    634    635     1   108.0100461 406.684800
    630    634    636     1   108.0100461 406.684800
    630    637    638     1   108.0100461 406.684800
    630    637    639     1   108.0100461 406.684800
    631    630    659     1   110.1100470 384.091200
    631    643    644     1   109.8000471 387.438400
    631    643    645     1   109.8000471 387.438400
    632    631    643     1   110.5600475 386.601600
    632    631    633     1   109.7500473 328.025600
    633    631    643     1   110.5600475 386.601600
    634    630    659     1   110.1100470 384.091200
    634    646    647     1   109.8000471 387.438400
    634    646    648     1   109.8000471 387.438400
    635    634    646     1   110.5600475 386.601600
    635    634    636     1   109.7500473 328.025600
    636    634    646     1   110.5600475 386.601600
    637    630    659     1   110.1100470 384.091200
    637    640    641     1   109.8000471 387.438400
    637    640    642     1   109.8000471 387.438400
    638    637    640     1   110.5600475 386.601600
    638    637    639     1   109.7500473 328.025600
    639    637    640     1   110.5600475 386.601600
    640    649    650     1   109.5600471 388.275200
    640    649    651     1   109.5600471 388.275200
    641    640    649     1   109.8000471 387.438400
    641    640    642     1   107.5800459 329.699200
    642    640    649     1   109.8000471 387.438400
    643    655    656     1   109.5600471 388.275200
    643    655    657     1   109.5600471 388.275200
    644    643    655     1   109.8000471 387.438400
    644    643    645     1   107.5800459 329.699200
    645    643    655     1   109.8000471 387.438400
    646    652    653     1   109.5600471 388.275200
    646    652    654     1   109.5600471 388.275200
    647    646    652     1   109.8000471 387.438400
    647    646    648     1   107.5800459 329.699200
    648    646    652     1   109.8000471 387.438400
    650    649    658     1   109.7800468 425.094400
    650    649    651     1   108.4600466 328.025600
    651    649    658     1   109.7800468 425.094400
    653    652   1348     1   109.7800468 425.094400
    653    652    654     1   108.4600466 328.025600
    654    652   1348     1   109.7800468 425.094400
    656    655   1378     1   109.7800468 425.094400
    656    655    657     1   108.4600466 328.025600
    657    655   1378     1   109.7800468 425.094400
    660    661    662     1   108.0100461 406.684800
    660    661    663     1   108.0100461 406.684800
    660    664    665     1   108.0100461 406.684800
    660    664    666     1   108.0100461 406.684800
    660    667    668     1   108.0100461 406.684800
    660    667    669     1   108.0100461 406.684800
    661    660    689     1   110.1100470 384.091200
    661    673    674     1   109.8000471 387.438400
    661    673    675     1   109.8000471 387.438400
    662    661    673     1   110.5600475 386.601600
    662    661    663     1   109.7500473 328.025600
    663    661    673     1   110.5600475 386.601600
    664    660    689     1   110.1100470 384.091200
    664    676    677     1   109.8000471 387.438400
    664    676    678     1   109.8000471 387.438400
    665    664    676     1   110.5600475 386.601600
    665    664    666     1   109.7500473 328.025600
    666    664    676     1   110.5600475 386.601600
    667    660    689     1   110.1100470 384.091200
    667    670    671     1   109.8000471 387.438400
    667    670    672     1   109.8000471 387.438400
    668    667    670     1   110.5600475 386.601600
    668    667    669     1   109.7500473 328.025600
    669    667    670     1   110.5600475 386.601600
    670    679    680     1   109.5600471 388.275200
    670    679    681     1   109.5600471 388.275200
    671    670    679     1   109.8000471 387.438400
    671    670    672     1   107.5800459 329.699200
    672    670    679     1   109.8000471 387.438400
    673    685    686     1   109.5600471 388.275200
    673    685    687     1   109.5600471 388.275200
    674    673    685     1   109.8000471 387.438400
    674    673    675     1   107.5800459 329.699200
    675    673    685     1   109.8000471 387.438400
    676    682    683     1   109.5600471 388.275200
    676    682    684     1   109.5600471 388.275200
    677    676    682     1   109.8000471 387.438400
    677    676    678     1   107.5800459 329.699200
    678    676    682     1   109.8000471 387.438400
    680    679    688     1   109.7800468 425.094400
    680    679    681     1   108.4600466 328.025600
    681    679    688     1   109.7800468 425.094400
    683    682   1408     1   109.7800468 425.094400
    683    682    684     1   108.4600466 328.025600
    684    682   1408     1   109.7800468 425.094400
    686    685   1438     1   109.7800468 425.094400
    686    685    687     1   108.4600466 328.025600
    687    685   1438     1   109.7800468 425.094400
    690    691    692     1   108.0100461 406.684800
    690    691    693     1   108.0100461 406.684800
    690    694    695     1   108.0100461 406.684800
    690    694    696     1   108.0100461 406.684800
    690    697    698     1   108.0100461 406.684800
    690    697    699     1   108.0100461 406.684800
    691    690    719     1   110.1100470 384.091200
    691    703    704     1   109.8000471 387.438400
    691    703    705     1   109.8000471 387.438400
    692    691    703     1   110.5600475 386.601600
    692    691    693     1   109.7500473 328.025600
    693    691    703     1   110.5600475 386.601600
    694    690    719     1   110.1100470 384.091200
    694    706    707     1   109.8000471 387.438400
    694    706    708     1   109.8000471 387.438400
    695    694    706     1   110.5600475 386.601600
    695    694    696     1   109.7500473 328.025600
    696    694    706     1   110.5600475 386.601600
    697    690    719     1   110.1100470 384.091200
    697    700    701     1   109.8000471 387.438400
    697    700    702     1   109.8000471 387.438400
    698    697    700     1   110.5600475 386.601600
    698    697    699     1   109.7500473 328.025600
    699    697    700     1   110.5600475 386.601600
    700    709    710     1   109.5600471 388.275200
    700    709    711     1   109.5600471 388.275200
    701    700    709     1   109.8000471 387.438400
    701    700    702     1   107.5800459 329.699200
    702    700    709     1   109.8000471 387.438400
    703    715    716     1   109.5600471 388.275200
    703    715    717     1   109.5600471 388.275200
    704    703    715     1   109.8000471 387.438400
    704    703    705     1   107.5800459 329.699200
    705    703    715     1   109.8000471 387.438400
    706    712    713     1   109.5600471 388.275200
    706    712    714     1   109.5600471 388.275200
    707    706    712     1   109.8000471 387.438400
    707    706    708     1   107.5800459 329.699200
    708    706    712     1   109.8000471 387.438400
    710    709    718     1   109.7800468 425.094400
    710    709    711     1   108.4600466 328.025600
    711    709    718     1   109.7800468 425.094400
    713    712   1468     1   109.7800468 425.094400
    713    712    714     1   108.4600466 328.025600
    714    712   1468     1   109.7800468 425.094400
    716    715   1498     1   109.7800468 425.094400
    716    715    717     1   108.4600466 328.025600
    717    715   1498     1   109.7800468 425.094400
    720    721    722     1   108.0100461 406.684800
    720    721    723     1   108.0100461 406.684800
    720    724    725     1   108.0100461 406.684800
    720    724    726     1   108.0100461 406.684800
    720    727    728     1   108.0100461 406.684800
    720    727    729     1   108.0100461 406.684800
    721    720    749     1   110.1100470 384.091200
    721    733    734     1   109.8000471 387.438400
    721    733    735     1   109.8000471 387.438400
    722    721    733     1   110.5600475 386.601600
    722    721    723     1   109.7500473 328.025600
    723    721    733     1   110.5600475 386.601600
    724    720    749     1   110.1100470 384.091200
    724    736    737     1   109.8000471 387.438400
    724    736    738     1   109.8000471 387.438400
    725    724    736     1   110.5600475 386.601600
    725    724    726     1   109.7500473 328.025600
    726    724    736     1   110.5600475 386.601600
    727    720    749     1   110.1100470 384.091200
    727    730    731     1   109.8000471 387.438400
    727    730    732     1   109.8000471 387.438400
    728    727    730     1   110.5600475 386.601600
    728    727    729     1   109.7500473 328.025600
    729    727    730     1   110.5600475 386.601600
    730    739    740     1   109.5600471 388.275200
    730    739    741     1   109.5600471 388.275200
    731    730    739     1   109.8000471 387.438400
    731    730    732     1   107.5800459 329.699200
    732    730    739     1   109.8000471 387.438400
    733    745    746     1   109.5600471 388.275200
    733    745    747     1   109.5600471 388.275200
    734    733    745     1   109.8000471 387.438400
    734    733    735     1   107.5800459 329.699200
    735    733    745     1   109.8000471 387.438400
    736    742    743     1   109.5600471 388.275200
    736    742    744     1   109.5600471 388.275200
    737    736    742     1   109.8000471 387.438400
    737    736    738     1   107.5800459 329.699200
    738    736    742     1   109.8000471 387.438400
    740    739    748     1   109.7800468 425.094400
    740    739    741     1   108.4600466 328.025600
    741    739    748     1   109.7800468 425.094400
    743    742   1528     1   109.7800468 425.094400
    743    742    744     1   108.4600466 328.025600
    744    742   1528     1   109.7800468 425.094400
    746    745   1558     1   109.7800468 425.094400
    746    745    747     1   108.4600466 328.025600
    747    745   1558     1   109.7800468 425.094400
    750    751    752     1   108.0100461 406.684800
    750    751    753     1   108.0100461 406.684800
    750    754    755     1   108.0100461 406.684800
    750    754    756     1   108.0100461 406.684800
    750    757    758     1   108.0100461 406.684800
    750    757    759     1   108.0100461 406.684800
    751    750    779     1   110.1100470 384.091200
    751    763    764     1   109.8000471 387.438400
    751    763    765     1   109.8000471 387.438400
    752    751    763     1   110.5600475 386.601600
    752    751    753     1   109.7500473 328.025600
    753    751    763     1   110.5600475 386.601600
    754    750    779     1   110.1100470 384.091200
    754    766    767     1   109.8000471 387.438400
    754    766    768     1   109.8000471 387.438400
    755    754    766     1   110.5600475 386.601600
    755    754    756     1   109.7500473 328.025600
    756    754    766     1   110.5600475 386.601600
    757    750    779     1   110.1100470 384.091200
    757    760    761     1   109.8000471 387.438400
    757    760    762     1   109.8000471 387.438400
    758    757    760     1   110.5600475 386.601600
    758    757    759     1   109.7500473 328.025600
    759    757    760     1   110.5600475 386.601600
    760    769    770     1   109.5600471 388.275200
    760    769    771     1   109.5600471 388.275200
    761    760    769     1   109.8000471 387.438400
    761    760    762     1   107.5800459 329.699200
    762    760    769     1   109.8000471 387.438400
    763    775    776     1   109.5600471 388.275200
    763    775    777     1   109.5600471 388.275200
    764    763    775     1   109.8000471 387.438400
    764    763    765     1   107.5800459 329.699200
    765    763    775     1   109.8000471 387.438400
    766    772    773     1   109.5600471 388.275200
    766    772    774     1   109.5600471 388.275200
    767    766    772     1   109.8000471 387.438400
    767    766    768     1   107.5800459 329.699200
    768    766    772     1   109.8000471 387.438400
    770    769    778     1   109.7800468 425.094400
    770    769    771     1   108.4600466 328.025600
    771    769    778     1   109.7800468 425.094400
    773    772   1588     1   109.7800468 425.094400
    773    772    774     1   108.4600466 328.025600
    774    772   1588     1   109.7800468 425.094400
    776    775   1618     1   109.7800468 425.094400
    776    775    777     1   108.4600466 328.025600
    777    775   1618     1   109.7800468 425.094400
    780    781    782     1   108.0100461 406.684800
    780    781    783     1   108.0100461 406.684800
    780    784    785     1   108.0100461 406.684800
    780    784    786     1   108.0100461 406.684800
    780    787    788     1   108.0100461 406.684800
    780    787    789     1   108.0100461 406.684800
    781    780    809     1   110.1100470 384.091200
    781    793    794     1   109.8000471 387.438400
    781    793    795     1   109.8000471 387.438400
    782    781    793     1   110.5600475 386.601600
    782    781    783     1   109.7500473 328.025600
    783    781    793     1   110.5600475 386.601600
    784    780    809     1   110.1100470 384.091200
    784    796    797     1   109.8000471 387.438400
    784    796    798     1   109.8000471 387.438400
    785    784    796     1   110.5600475 386.601600
    785    784    786     1   109.7500473 328.025600
    786    784    796     1   110.5600475 386.601600
    787    780    809     1   110.1100470 384.091200
    787    790    791     1   109.8000471 387.438400
    787    790    792     1   109.8000471 387.438400
    788    787    790     1   110.5600475 386.601600
    788    787    789     1   109.7500473 328.025600
    789    787    790     1   110.5600475 386.601600
    790    799    800     1   109.5600471 388.275200
    790    799    801     1   109.5600471 388.275200
    791    790    799     1   109.8000471 387.438400
    791    790    792     1   107.5800459 329.699200
    792    790    799     1   109.8000471 387.438400
    793    805    806     1   109.5600471 388.275200
    793    805    807     1   109.5600471 388.275200
    794    793    805     1   109.8000471 387.438400
    794    793    795     1   107.5800459 329.699200
    795    793    805     1   109.8000471 387.438400
    796    802    803     1   109.5600471 388.275200
    796    802    804     1   109.5600471 388.275200
    797    796    802     1   109.8000471 387.438400
    797    796    798     1   107.5800459 329.699200
    798    796    802     1   109.8000471 387.438400
    800    799    808     1   109.7800468 425.094400
    800    799    801     1   108.4600466 328.025600
    801    799    808     1   109.7800468 425.094400
    803    802   1648     1   109.7800468 425.094400
    803    802    804     1   108.4600466 328.025600
    804    802   1648     1   109.7800468 425.094400
    806    805   1678     1   109.7800468 425.094400
    806    805    807     1   108.4600466 328.025600
    807    805   1678     1   109.7800468 425.094400
    810    811    812     1   108.0100461 406.684800
    810    811    813     1   108.0100461 406.684800
    810    814    815     1   108.0100461 406.684800
    810    814    816     1   108.0100461 406.684800
    810    817    818     1   108.0100461 406.684800
    810    817    819     1   108.0100461 406.684800
    811    810    839     1   110.1100470 384.091200
    811    823    824     1   109.8000471 387.438400
    811    823    825     1   109.8000471 387.438400
    812    811    823     1   110.5600475 386.601600
    812    811    813     1   109.7500473 328.025600
    813    811    823     1   110.5600475 386.601600
    814    810    839     1   110.1100470 384.091200
    814    826    827     1   109.8000471 387.438400
    814    826    828     1   109.8000471 387.438400
    815    814    826     1   110.5600475 386.601600
    815    814    816     1   109.7500473 328.025600
    816    814    826     1   110.5600475 386.601600
    817    810    839     1   110.1100470 384.091200
    817    820    821     1   109.8000471 387.438400
    817    820    822     1   109.8000471 387.438400
    818    817    820     1   110.5600475 386.601600
    818    817    819     1   109.7500473 328.025600
    819    817    820     1   110.5600475 386.601600
    820    829    830     1   109.5600471 388.275200
    820    829    831     1   109.5600471 388.275200
    821    820    829     1   109.8000471 387.438400
    821    820    822     1   107.5800459 329.699200
    822    820    829     1   109.8000471 387.438400
    823    835    836     1   109.5600471 388.275200
    823    835    837     1   109.5600471 388.275200
    824    823    835     1   109.8000471 387.438400
    824    823    825     1   107.5800459 329.699200
    825    823    835     1   109.8000471 387.438400
    826    832    833     1   109.5600471 388.275200
    826    832    834     1   109.5600471 388.275200
    827    826    832     1   109.8000471 387.438400
    827    826    828     1   107.5800459 329.699200
    828    826    832     1   109.8000471 387.438400
    830    829    838     1   109.7800468 425.094400
    830    829    831     1   108.4600466 328.025600
    831    829    838     1   109.7800468 425.094400
    833    832   1708     1   109.7800468 425.094400
    833    832    834     1   108.4600466 328.025600
    834    832   1708     1   109.7800468 425.094400
    836    835   1738     1   109.7800468 425.094400
    836    835    837     1   108.4600466 328.025600
    837    835   1738     1   109.7800468 425.094400
    840    841    842     1   108.0100461 406.684800
    840    841    843     1   108.0100461 406.684800
    840    844    845     1   108.0100461 406.684800
    840    844    846     1   108.0100461 406.684800
    840    847    848     1   108.0100461 406.684800
    840    847    849     1   108.0100461 406.684800
    841    840    869     1   110.1100470 384.091200
    841    853    854     1   109.8000471 387.438400
    841    853    855     1   109.8000471 387.438400
    842    841    853     1   110.5600475 386.601600
    842    841    843     1   109.7500473 328.025600
    843    841    853     1   110.5600475 386.601600
    844    840    869     1   110.1100470 384.091200
    844    856    857     1   109.8000471 387.438400
    844    856    858     1   109.8000471 387.438400
    845    844    856     1   110.5600475 386.601600
    845    844    846     1   109.7500473 328.025600
    846    844    856     1   110.5600475 386.601600
    847    840    869     1   110.1100470 384.091200
    847    850    851     1   109.8000471 387.438400
    847    850    852     1   109.8000471 387.438400
    848    847    850     1   110.5600475 386.601600
    848    847    849     1   109.7500473 328.025600
    849    847    850     1   110.5600475 386.601600
    850    859    860     1   109.5600471 388.275200
    850    859    861     1   109.5600471 388.275200
    851    850    859     1   109.8000471 387.438400
    851    850    852     1   107.5800459 329.699200
    852    850    859     1   109.8000471 387.438400
    853    865    866     1   109.5600471 388.275200
    853    865    867     1   109.5600471 388.275200
    854    853    865     1   109.8000471 387.438400
    854    853    855     1   107.5800459 329.699200
    855    853    865     1   109.8000471 387.438400
    856    862    863     1   109.5600471 388.275200
    856    862    864     1   109.5600471 388.275200
    857    856    862     1   109.8000471 387.438400
    857    856    858     1   107.5800459 329.699200
    858    856    862     1   109.8000471 387.438400
    860    859    868     1   109.7800468 425.094400
    860    859    861     1   108.4600466 328.025600
    861    859    868     1   109.7800468 425.094400
    863    862   1768     1   109.7800468 425.094400
    863    862    864     1   108.4600466 328.025600
    864    862   1768     1   109.7800468 425.094400
    866    865   1798     1   109.7800468 425.094400
    866    865    867     1   108.4600466 328.025600
    867    865   1798     1   109.7800468 425.094400
    870    871    872     1   108.0100461 406.684800
    870    871    873     1   108.0100461 406.684800
    870    874    875     1   108.0100461 406.684800
    870    874    876     1   108.0100461 406.684800
    870    877    878     1   108.0100461 406.684800
    870    877    879     1   108.0100461 406.684800
    871    870    899     1   110.1100470 384.091200
    871    883    884     1   109.8000471 387.438400
    871    883    885     1   109.8000471 387.438400
    872    871    883     1   110.5600475 386.601600
    872    871    873     1   109.7500473 328.025600
    873    871    883     1   110.5600475 386.601600
    874    870    899     1   110.1100470 384.091200
    874    886    887     1   109.8000471 387.438400
    874    886    888     1   109.8000471 387.438400
    875    874    886     1   110.5600475 386.601600
    875    874    876     1   109.7500473 328.025600
    876    874    886     1   110.5600475 386.601600
    877    870    899     1   110.1100470 384.091200
    877    880    881     1   109.8000471 387.438400
    877    880    882     1   109.8000471 387.438400
    878    877    880     1   110.5600475 386.601600
    878    877    879     1   109.7500473 328.025600
    879    877    880     1   110.5600475 386.601600
    880    889    890     1   109.5600471 388.275200
    880    889    891     1   109.5600471 388.275200
    881    880    889     1   109.8000471 387.438400
    881    880    882     1   107.5800459 329.699200
    882    880    889     1   109.8000471 387.438400
    883    895    896     1   109.5600471 388.275200
    883    895    897     1   109.5600471 388.275200
    884    883    895     1   109.8000471 387.438400
    884    883    885     1   107.5800459 329.699200
    885    883    895     1   109.8000471 387.438400
    886    892    893     1   109.5600471 388.275200
    886    892    894     1   109.5600471 388.275200
    887    886    892     1   109.8000471 387.438400
    887    886    888     1   107.5800459 329.699200
    888    886    892     1   109.8000471 387.438400
    890    889    898     1   109.7800468 425.094400
    890    889    891     1   108.4600466 328.025600
    891    889    898     1   109.7800468 425.094400
    893    892   1828     1   109.7800468 425.094400
    893    892    894     1   108.4600466 328.025600
    894    892   1828     1   109.7800468 425.094400
    896    895   1858     1   109.7800468 425.094400
    896    895    897     1   108.4600466 328.025600
    897    895   1858     1   109.7800468 425.094400
    900    901    902     1   108.0100461 406.684800
    900    901    903     1   108.0100461 406.684800
    900    904    905     1   108.0100461 406.684800
    900    904    906     1   108.0100461 406.684800
    900    907    908     1   108.0100461 406.684800
    900    907    909     1   108.0100461 406.684800
    901    900    929     1   110.1100470 384.091200
    901    913    914     1   109.8000471 387.438400
    901    913    915     1   109.8000471 387.438400
    902    901    913     1   110.5600475 386.601600
    902    901    903     1   109.7500473 328.025600
    903    901    913     1   110.5600475 386.601600
    904    900    929     1   110.1100470 384.091200
    904    916    917     1   109.8000471 387.438400
    904    916    918     1   109.8000471 387.438400
    905    904    916     1   110.5600475 386.601600
    905    904    906     1   109.7500473 328.025600
    906    904    916     1   110.5600475 386.601600
    907    900    929     1   110.1100470 384.091200
    907    910    911     1   109.8000471 387.438400
    907    910    912     1   109.8000471 387.438400
    908    907    910     1   110.5600475 386.601600
    908    907    909     1   109.7500473 328.025600
    909    907    910     1   110.5600475 386.601600
    910    919    920     1   109.5600471 388.275200
    910    919    921     1   109.5600471 388.275200
    911    910    919     1   109.8000471 387.438400
    911    910    912     1   107.5800459 329.699200
    912    910    919     1   109.8000471 387.438400
    913    925    926     1   109.5600471 388.275200
    913    925    927     1   109.5600471 388.275200
    914    913    925     1   109.8000471 387.438400
    914    913    915     1   107.5800459 329.699200
    915    913    925     1   109.8000471 387.438400
    916    922    923     1   109.5600471 388.275200
    916    922    924     1   109.5600471 388.275200
    917    916    922     1   109.8000471 387.438400
    917    916    918     1   107.5800459 329.699200
    918    916    922     1   109.8000471 387.438400
    920    919    928     1   109.7800468 425.094400
    920    919    921     1   108.4600466 328.025600
    921    919    928     1   109.7800468 425.094400
    923    922   1888     1   109.7800468 425.094400
    923    922    924     1   108.4600466 328.025600
    924    922   1888     1   109.7800468 425.094400
    926    925   1918     1   109.7800468 425.094400
    926    925    927     1   108.4600466 328.025600
    927    925   1918     1   109.7800468 425.094400
    930    931    932     1   108.0100461 406.684800
    930    931    933     1   108.0100461 406.684800
    930    934    935     1   108.0100461 406.684800
    930    934    936     1   108.0100461 406.684800
    930    937    938     1   108.0100461 406.684800
    930    937    939     1   108.0100461 406.684800
    931    930    959     1   110.1100470 384.091200
    931    943    944     1   109.8000471 387.438400
    931    943    945     1   109.8000471 387.438400
    932    931    943     1   110.5600475 386.601600
    932    931    933     1   109.7500473 328.025600
    933    931    943     1   110.5600475 386.601600
    934    930    959     1   110.1100470 384.091200
    934    946    947     1   109.8000471 387.438400
    934    946    948     1   109.8000471 387.438400
    935    934    946     1   110.5600475 386.601600
    935    934    936     1   109.7500473 328.025600
    936    934    946     1   110.5600475 386.601600
    937    930    959     1   110.1100470 384.091200
    937    940    941     1   109.8000471 387.438400
    937    940    942     1   109.8000471 387.438400
    938    937    940     1   110.5600475 386.601600
    938    937    939     1   109.7500473 328.025600
    939    937    940     1   110.5600475 386.601600
    940    949    950     1   109.5600471 388.275200
    940    949    951     1   109.5600471 388.275200
    941    940    949     1   109.8000471 387.438400
    941    940    942     1   107.5800459 329.699200
    942    940    949     1   109.8000471 387.438400
    943    955    956     1   109.5600471 388.275200
    943    955    957     1   109.5600471 388.275200
    944    943    955     1   109.8000471 387.438400
    944    943    945     1   107.5800459 329.699200
    945    943    955     1   109.8000471 387.438400
    946    952    953     1   109.5600471 388.275200
    946    952    954     1   109.5600471 388.275200
    947    946    952     1   109.8000471 387.438400
    947    946    948     1   107.5800459 329.699200
    948    946    952     1   109.8000471 387.438400
    950    949    958     1   109.7800468 425.094400
    950    949    951     1   108.4600466 328.025600
    951    949    958     1   109.7800468 425.094400
    953    952   1948     1   109.7800468 425.094400
    953    952    954     1   108.4600466 328.025600
    954    952   1948     1   109.7800468 425.094400
    956    955   1978     1   109.7800468 425.094400
    956    955    957     1   108.4600466 328.025600
    957    955   1978     1   109.7800468 425.094400
    960    961    962     1   108.0100461 406.684800
    960    961    963     1   108.0100461 406.684800
    960    964    965     1   108.0100461 406.684800
    960    964    966     1   108.0100461 406.684800
    960    967    968     1   108.0100461 406.684800
    960    967    969     1   108.0100461 406.684800
    961    960    989     1   110.1100470 384.091200
    961    973    974     1   109.8000471 387.438400
    961    973    975     1   109.8000471 387.438400
    962    961    973     1   110.5600475 386.601600
    962    961    963     1   109.7500473 328.025600
    963    961    973     1   110.5600475 386.601600
    964    960    989     1   110.1100470 384.091200
    964    976    977     1   109.8000471 387.438400
    964    976    978     1   109.8000471 387.438400
    965    964    976     1   110.5600475 386.601600
    965    964    966     1   109.7500473 328.025600
    966    964    976     1   110.5600475 386.601600
    967    960    989     1   110.1100470 384.091200
    967    970    971     1   109.8000471 387.438400
    967    970    972     1   109.8000471 387.438400
    968    967    970     1   110.5600475 386.601600
    968    967    969     1   109.7500473 328.025600
    969    967    970     1   110.5600475 386.601600
    970    979    980     1   109.5600471 388.275200
    970    979    981     1   109.5600471 388.275200
    971    970    979     1   109.8000471 387.438400
    971    970    972     1   107.5800459 329.699200
    972    970    979     1   109.8000471 387.438400
    973    985    986     1   109.5600471 388.275200
    973    985    987     1   109.5600471 388.275200
    974    973    985     1   109.8000471 387.438400
    974    973    975     1   107.5800459 329.699200
    975    973    985     1   109.8000471 387.438400
    976    982    983     1   109.5600471 388.275200
    976    982    984     1   109.5600471 388.275200
    977    976    982     1   109.8000471 387.438400
    977    976    978     1   107.5800459 329.699200
    978    976    982     1   109.8000471 387.438400
    980    979    988     1   109.7800468 425.094400
    980    979    981     1   108.4600466 328.025600
    981    979    988     1   109.7800468 425.094400
    983    982   2008     1   109.7800468 425.094400
    983    982    984     1   108.4600466 328.025600
    984    982   2008     1   109.7800468 425.094400
    986    985   2038     1   109.7800468 425.094400
    986    985    987     1   108.4600466 328.025600
    987    985   2038     1   109.7800468 425.094400
    990    991    992     1   108.0100461 406.684800
    990    991    993     1   108.0100461 406.684800
    990    994    995     1   108.0100461 406.684800
    990    994    996     1   108.0100461 406.684800
    990    997    998     1   108.0100461 406.684800
    990    997    999     1   108.0100461 406.684800
    991    990   1019     1   110.1100470 384.091200
    991   1003   1004     1   109.8000471 387.438400
    991   1003   1005     1   109.8000471 387.438400
    992    991   1003     1   110.5600475 386.601600
    992    991    993     1   109.7500473 328.025600
    993    991   1003     1   110.5600475 386.601600
    994    990   1019     1   110.1100470 384.091200
    994   1006   1007     1   109.8000471 387.438400
    994   1006   1008     1   109.8000471 387.438400
    995    994   1006     1   110.5600475 386.601600
    995    994    996     1   109.7500473 328.025600
    996    994   1006     1   110.5600475 386.601600
    997    990   1019     1   110.1100470 384.091200
    997   1000   1001     1   109.8000471 387.438400
    997   1000   1002     1   109.8000471 387.438400
    998    997   1000     1   110.5600475 386.601600
    998    997    999     1   109.7500473 328.025600
    999    997   1000     1   110.5600475 386.601600
   1000   1009   1010     1   109.5600471 388.275200
   1000   1009   1011     1   109.5600471 388.275200
   1001   1000   1009     1   109.8000471 387.438400
   1001   1000   1002     1   107.5800459 329.699200
   1002   1000   1009     1   109.8000471 387.438400
   1003   1015   1016     1   109.5600471 388.275200
   1003   1015   1017     1   109.5600471 388.275200
   1004   1003   1015     1   109.8000471 387.438400
   1004   1003   1005     1   107.5800459 329.699200
   1005   1003   1015     1   109.8000471 387.438400
   1006   1012   1013     1   109.5600471 388.275200
   1006   1012   1014     1   109.5600471 388.275200
   1007   1006   1012     1   109.8000471 387.438400
   1007   1006   1008     1   107.5800459 329.699200
   1008   1006   1012     1   109.8000471 387.438400
   1010   1009   1018     1   109.7800468 425.094400
   1010   1009   1011     1   108.4600466 328.025600
   1011   1009   1018     1   109.7800468 425.094400
   1013   1012   2068     1   109.7800468 425.094400
   1013   1012   1014     1   108.4600466 328.025600
   1014   1012   2068     1   109.7800468 425.094400
   1016   1015   2098     1   109.7800468 425.094400
   1016   1015   1017     1   108.4600466 328.025600
   1017   1015   2098     1   109.7800468 425.094400
   1020   1021   1022     1   108.0100461 406.684800
   1020   1021   1023     1   108.0100461 406.684800
   1020   1024   1025     1   108.0100461 406.684800
   1020   1024   1026     1   108.0100461 406.684800
   1020   1027   1028     1   108.0100461 406.684800
   1020   1027   1029     1   108.0100461 406.684800
   1021   1020   1049     1   110.1100470 384.091200
   1021   1033   1034     1   109.8000471 387.438400
   1021   1033   1035     1   109.8000471 387.438400
   1022   1021   1033     1   110.5600475 386.601600
   1022   1021   1023     1   109.7500473 328.025600
   1023   1021   1033     1   110.5600475 386.601600
   1024   1020   1049     1   110.1100470 384.091200
   1024   1036   1037     1   109.8000471 387.438400
   1024   1036   1038     1   109.8000471 387.438400
   1025   1024   1036     1   110.5600475 386.601600
   1025   1024   1026     1   109.7500473 328.025600
   1026   1024   1036     1   110.5600475 386.601600
   1027   1020   1049     1   110.1100470 384.091200
   1027   1030   1031     1   109.8000471 387.438400
   1027   1030   1032     1   109.8000471 387.438400
   1028   1027   1030     1   110.5600475 386.601600
   1028   1027   1029     1   109.7500473 328.025600
   1029   1027   1030     1   110.5600475 386.601600
   1030   1039   1040     1   109.5600471 388.275200
   1030   1039   1041     1   109.5600471 388.275200
   1031   1030   1039     1   109.8000471 387.438400
   1031   1030   1032     1   107.5800459 329.699200
   1032   1030   1039     1   109.8000471 387.438400
   1033   1045   1046     1   109.5600471 388.275200
   1033   1045   1047     1   109.5600471 388.275200
   1034   1033   1045     1   109.8000471 387.438400
   1034   1033   1035     1   107.5800459 329.699200
   1035   1033   1045     1   109.8000471 387.438400
   1036   1042   1043     1   109.5600471 388.275200
   1036   1042   1044     1   109.5600471 388.275200
   1037   1036   1042     1   109.8000471 387.438400
   1037   1036   1038     1   107.5800459 329.699200
   1038   1036   1042     1   109.8000471 387.438400
   1040   1039   1048     1   109.7800468 425.094400
   1040   1039   1041     1   108.4600466 328.025600
   1041   1039   1048     1   109.7800468 425.094400
   1043   1042   2128     1   109.7800468 425.094400
   1043   1042   1044     1   108.4600466 328.025600
   1044   1042   2128     1   109.7800468 425.094400
   1046   1045   2158     1   109.7800468 425.094400
   1046   1045   1047     1   108.4600466 328.025600
   1047   1045   2158     1   109.7800468 425.094400
   1050   1051   1052     1   108.0100461 406.684800
   1050   1051   1053     1   108.0100461 406.684800
   1050   1054   1055     1   108.0100461 406.684800
   1050   1054   1056     1   108.0100461 406.684800
   1050   1057   1058     1   108.0100461 406.684800
   1050   1057   1059     1   108.0100461 406.684800
   1051   1050   1079     1   110.1100470 384.091200
   1051   1063   1064     1   109.8000471 387.438400
   1051   1063   1065     1   109.8000471 387.438400
   1052   1051   1063     1   110.5600475 386.601600
   1052   1051   1053     1   109.7500473 328.025600
   1053   1051   1063     1   110.5600475 386.601600
   1054   1050   1079     1   110.1100470 384.091200
   1054   1066   1067     1   109.8000471 387.438400
   1054   1066   1068     1   109.8000471 387.438400
   1055   1054   1066     1   110.5600475 386.601600
   1055   1054   1056     1   109.7500473 328.025600
   1056   1054   1066     1   110.5600475 386.601600
   1057   1050   1079     1   110.1100470 384.091200
   1057   1060   1061     1   109.8000471 387.438400
   1057   1060   1062     1   109.8000471 387.438400
   1058   1057   1060     1   110.5600475 386.601600
   1058   1057   1059     1   109.7500473 328.025600
   1059   1057   1060     1   110.5600475 386.601600
   1060   1069   1070     1   109.5600471 388.275200
   1060   1069   1071     1   109.5600471 388.275200
   1061   1060   1069     1   109.8000471 387.438400
   1061   1060   1062     1   107.5800459 329.699200
   1062   1060   1069     1   109.8000471 387.438400
   1063   1075   1076     1   109.5600471 388.275200
   1063   1075   1077     1   109.5600471 388.275200
   1064   1063   1075     1   109.8000471 387.438400
   1064   1063   1065     1   107.5800459 329.699200
   1065   1063   1075     1   109.8000471 387.438400
   1066   1072   1073     1   109.5600471 388.275200
   1066   1072   1074     1   109.5600471 388.275200
   1067   1066   1072     1   109.8000471 387.438400
   1067   1066   1068     1   107.5800459 329.699200
   1068   1066   1072     1   109.8000471 387.438400
   1070   1069   1078     1   109.7800468 425.094400
   1070   1069   1071     1   108.4600466 328.025600
   1071   1069   1078     1   109.7800468 425.094400
   1073   1072   2188     1   109.7800468 425.094400
   1073   1072   1074     1   108.4600466 328.025600
   1074   1072   2188     1   109.7800468 425.094400
   1076   1075   2218     1   109.7800468 425.094400
   1076   1075   1077     1   108.4600466 328.025600
   1077   1075   2218     1   109.7800468 425.094400
   1080   1081   1082     1   108.0100461 406.684800
   1080   1081   1083     1   108.0100461 406.684800
   1080   1084   1085     1   108.0100461 406.684800
   1080   1084   1086     1   108.0100461 406.684800
   1080   1087   1088     1   108.0100461 406.684800
   1080   1087   1089     1   108.0100461 406.684800
   1081   1080   1109     1   110.1100470 384.091200
   1081   1093   1094     1   109.8000471 387.438400
   1081   1093   1095     1   109.8000471 387.438400
   1082   1081   1093     1   110.5600475 386.601600
   1082   1081   1083     1   109.7500473 328.025600
   1083   1081   1093     1   110.5600475 386.601600
   1084   1080   1109     1   110.1100470 384.091200
   1084   1096   1097     1   109.8000471 387.438400
   1084   1096   1098     1   109.8000471 387.438400
   1085   1084   1096     1   110.5600475 386.601600
   1085   1084   1086     1   109.7500473 328.025600
   1086   1084   1096     1   110.5600475 386.601600
   1087   1080   1109     1   110.1100470 384.091200
   1087   1090   1091     1   109.8000471 387.438400
   1087   1090   1092     1   109.8000471 387.438400
   1088   1087   1090     1   110.5600475 386.601600
   1088   1087   1089     1   109.7500473 328.025600
   1089   1087   1090     1   110.5600475 386.601600
   1090   1099   1100     1   109.5600471 388.275200
   1090   1099   1101     1   109.5600471 388.275200
   1091   1090   1099     1   109.8000471 387.438400
   1091   1090   1092     1   107.5800459 329.699200
   1092   1090   1099     1   109.8000471 387.438400
   1093   1105   1106     1   109.5600471 388.275200
   1093   1105   1107     1   109.5600471 388.275200
   1094   1093   1105     1   109.8000471 387.438400
   1094   1093   1095     1   107.5800459 329.699200
   1095   1093   1105     1   109.8000471 387.438400
   1096   1102   1103     1   109.5600471 388.275200
   1096   1102   1104     1   109.5600471 388.275200
   1097   1096   1102     1   109.8000471 387.438400
   1097   1096   1098     1   107.5800459 329.699200
   1098   1096   1102     1   109.8000471 387.438400
   1100   1099   1108     1   109.7800468 425.094400
   1100   1099   1101     1   108.4600466 328.025600
   1101   1099   1108     1   109.7800468 425.094400
   1103   1102   2248     1   109.7800468 425.094400
   1103   1102   1104     1   108.4600466 328.025600
   1104   1102   2248     1   109.7800468 425.094400
   1106   1105   2278     1   109.7800468 425.094400
   1106   1105   1107     1   108.4600466 328.025600
   1107   1105   2278     1   109.7800468 425.094400
   1110   1111   1112     1   108.0100461 406.684800
   1110   1111   1113     1   108.0100461 406.684800
   1110   1114   1115     1   108.0100461 406.684800
   1110   1114   1116     1   108.0100461 406.684800
   1110   1117   1118     1   108.0100461 406.684800
   1110   1117   1119     1   108.0100461 406.684800
   1111   1110   1139     1   110.1100470 384.091200
   1111   1123   1124     1   109.8000471 387.438400
   1111   1123   1125     1   109.8000471 387.438400
   1112   1111   1123     1   110.5600475 386.601600
   1112   1111   1113     1   109.7500473 328.025600
   1113   1111   1123     1   110.5600475 386.601600
   1114   1110   1139     1   110.1100470 384.091200
   1114   1126   1127     1   109.8000471 387.438400
   1114   1126   1128     1   109.8000471 387.438400
   1115   1114   1126     1   110.5600475 386.601600
   1115   1114   1116     1   109.7500473 328.025600
   1116   1114   1126     1   110.5600475 386.601600
   1117   1110   1139     1   110.1100470 384.091200
   1117   1120   1121     1   109.8000471 387.438400
   1117   1120   1122     1   109.8000471 387.438400
   1118   1117   1120     1   110.5600475 386.601600
   1118   1117   1119     1   109.7500473 328.025600
   1119   1117   1120     1   110.5600475 386.601600
   1120   1129   1130     1   109.5600471 388.275200
   1120   1129   1131     1   109.5600471 388.275200
   1121   1120   1129     1   109.8000471 387.438400
   1121   1120   1122     1   107.5800459 329.699200
   1122   1120   1129     1   109.8000471 387.438400
   1123   1135   1136     1   109.5600471 388.275200
   1123   1135   1137     1   109.5600471 388.275200
   1124   1123   1135     1   109.8000471 387.438400
   1124   1123   1125     1   107.5800459 329.699200
   1125   1123   1135     1   109.8000471 387.438400
   1126   1132   1133     1   109.5600471 388.275200
   1126   1132   1134     1   109.5600471 388.275200
   1127   1126   1132     1   109.8000471 387.438400
   1127   1126   1128     1   107.5800459 329.699200
   1128   1126   1132     1   109.8000471 387.438400
   1130   1129   1138     1   109.7800468 425.094400
   1130   1129   1131     1   108.4600466 328.025600
   1131   1129   1138     1   109.7800468 425.094400
   1133   1132   2308     1   109.7800468 425.094400
   1133   1132   1134     1   108.4600466 328.025600
   1134   1132   2308     1   109.7800468 425.094400
   1136   1135   2338     1   109.7800468 425.094400
   1136   1135   1137     1   108.4600466 328.025600
   1137   1135   2338     1   109.7800468 425.094400
   1140   1141   1142     1   108.0100461 406.684800
   1140   1141   1143     1   108.0100461 406.684800
   1140   1144   1145     1   108.0100461 406.684800
   1140   1144   1146     1   108.0100461 406.684800
   1140   1147   1148     1   108.0100461 406.684800
   1140   1147   1149     1   108.0100461 406.684800
   1141   1140   1169     1   110.1100470 384.091200
   1141   1153   1154     1   109.8000471 387.438400
   1141   1153   1155     1   109.8000471 387.438400
   1142   1141   1153     1   110.5600475 386.601600
   1142   1141   1143     1   109.7500473 328.025600
   1143   1141   1153     1   110.5600475 386.601600
   1144   1140   1169     1   110.1100470 384.091200
   1144   1156   1157     1   109.8000471 387.438400
   1144   1156   1158     1   109.8000471 387.438400
   1145   1144   1156     1   110.5600475 386.601600
   1145   1144   1146     1   109.7500473 328.025600
   1146   1144   1156     1   110.5600475 386.601600
   1147   1140   1169     1   110.1100470 384.091200
   1147   1150   1151     1   109.8000471 387.438400
   1147   1150   1152     1   109.8000471 387.438400
   1148   1147   1150     1   110.5600475 386.601600
   1148   1147   1149     1   109.7500473 328.025600
   1149   1147   1150     1   110.5600475 386.601600
   1150   1159   1160     1   109.5600471 388.275200
   1150   1159   1161     1   109.5600471 388.275200
   1151   1150   1159     1   109.8000471 387.438400
   1151   1150   1152     1   107.5800459 329.699200
   1152   1150   1159     1   109.8000471 387.438400
   1153   1165   1166     1   109.5600471 388.275200
   1153   1165   1167     1   109.5600471 388.275200
   1154   1153   1165     1   109.8000471 387.438400
   1154   1153   1155     1   107.5800459 329.699200
   1155   1153   1165     1   109.8000471 387.438400
   1156   1162   1163     1   109.5600471 388.275200
   1156   1162   1164     1   109.5600471 388.275200
   1157   1156   1162     1   109.8000471 387.438400
   1157   1156   1158     1   107.5800459 329.699200
   1158   1156   1162     1   109.8000471 387.438400
   1160   1159   1168     1   109.7800468 425.094400
   1160   1159   1161     1   108.4600466 328.025600
   1161   1159   1168     1   109.7800468 425.094400
   1163   1162   2368     1   109.7800468 425.094400
   1163   1162   1164     1   108.4600466 328.025600
   1164   1162   2368     1   109.7800468 425.094400
   1166   1165   2398     1   109.7800468 425.094400
   1166   1165   1167     1   108.4600466 328.025600
   1167   1165   2398     1   109.7800468 425.094400
   1170   1171   1172     1   108.0100461 406.684800
   1170   1171   1173     1   108.0100461 406.684800
   1170   1174   1175     1   108.0100461 406.684800
   1170   1174   1176     1   108.0100461 406.684800
   1170   1177   1178     1   108.0100461 406.684800
   1170   1177   1179     1   108.0100461 406.684800
   1171   1170   1199     1   110.1100470 384.091200
   1171   1183   1184     1   109.8000471 387.438400
   1171   1183   1185     1   109.8000471 387.438400
   1172   1171   1183     1   110.5600475 386.601600
   1172   1171   1173     1   109.7500473 328.025600
   1173   1171   1183     1   110.5600475 386.601600
   1174   1170   1199     1   110.1100470 384.091200
   1174   1186   1187     1   109.8000471 387.438400
   1174   1186   1188     1   109.8000471 387.438400
   1175   1174   1186     1   110.5600475 386.601600
   1175   1174   1176     1   109.7500473 328.025600
   1176   1174   1186     1   110.5600475 386.601600
   1177   1170   1199     1   110.1100470 384.091200
   1177   1180   1181     1   109.8000471 387.438400
   1177   1180   1182     1   109.8000471 387.438400
   1178   1177   1180     1   110.5600475 386.601600
   1178   1177   1179     1   109.7500473 328.025600
   1179   1177   1180     1   110.5600475 386.601600
   1180   1189   1190     1   109.5600471 388.275200
   1180   1189   1191     1   109.5600471 388.275200
   1181   1180   1189     1   109.8000471 387.438400
   1181   1180   1182     1   107.5800459 329.699200
   1182   1180   1189     1   109.8000471 387.438400
   1183   1195   1196     1   109.5600471 388.275200
   1183   1195   1197     1   109.5600471 388.275200
   1184   1183   1195     1   109.8000471 387.438400
   1184   1183   1185     1   107.5800459 329.699200
   1185   1183   1195     1   109.8000471 387.438400
   1186   1192   1193     1   109.5600471 388.275200
   1186   1192   1194     1   109.5600471 388.275200
   1187   1186   1192     1   109.8000471 387.438400
   1187   1186   1188     1   107.5800459 329.699200
   1188   1186   1192     1   109.8000471 387.438400
   1190   1189   1198     1   109.7800468 425.094400
   1190   1189   1191     1   108.4600466 328.025600
   1191   1189   1198     1   109.7800468 425.094400
   1193   1192   2428     1   109.7800468 425.094400
   1193   1192   1194     1   108.4600466 328.025600
   1194   1192   2428     1   109.7800468 425.094400
   1196   1195   2458     1   109.7800468 425.094400
   1196   1195   1197     1   108.4600466 328.025600
   1197   1195   2458     1   109.7800468 425.094400
   1200   1201   1202     1   108.0100461 406.684800
   1200   1201   1203     1   108.0100461 406.684800
   1200   1204   1205     1   108.0100461 406.684800
   1200   1204   1206     1   108.0100461 406.684800
   1200   1207   1208     1   108.0100461 406.684800
   1200   1207   1209     1   108.0100461 406.684800
   1201   1200   1229     1   110.1100470 384.091200
   1201   1213   1214     1   109.8000471 387.438400
   1201   1213   1215     1   109.8000471 387.438400
   1202   1201   1213     1   110.5600475 386.601600
   1202   1201   1203     1   109.7500473 328.025600
   1203   1201   1213     1   110.5600475 386.601600
   1204   1200   1229     1   110.1100470 384.091200
   1204   1216   1217     1   109.8000471 387.438400
   1204   1216   1218     1   109.8000471 387.438400
   1205   1204   1216     1   110.5600475 386.601600
   1205   1204   1206     1   109.7500473 328.025600
   1206   1204   1216     1   110.5600475 386.601600
   1207   1200   1229     1   110.1100470 384.091200
   1207   1210   1211     1   109.8000471 387.438400
   1207   1210   1212     1   109.8000471 387.438400
   1208   1207   1210     1   110.5600475 386.601600
   1208   1207   1209     1   109.7500473 328.025600
   1209   1207   1210     1   110.5600475 386.601600
   1210   1219   1220     1   109.5600471 388.275200
   1210   1219   1221     1   109.5600471 388.275200
   1211   1210   1219     1   109.8000471 387.438400
   1211   1210   1212     1   107.5800459 329.699200
   1212   1210   1219     1   109.8000471 387.438400
   1213   1225   1226     1   109.5600471 388.275200
   1213   1225   1227     1   109.5600471 388.275200
   1214   1213   1225     1   109.8000471 387.438400
   1214   1213   1215     1   107.5800459 329.699200
   1215   1213   1225     1   109.8000471 387.438400
   1216   1222   1223     1   109.5600471 388.275200
   1216   1222   1224     1   109.5600471 388.275200
   1217   1216   1222     1   109.8000471 387.438400
   1217   1216   1218     1   107.5800459 329.699200
   1218   1216   1222     1   109.8000471 387.438400
   1220   1219   1228     1   109.7800468 425.094400
   1220   1219   1221     1   108.4600466 328.025600
   1221   1219   1228     1   109.7800468 425.094400
   1223   1222   2488     1   109.7800468 425.094400
   1223   1222   1224     1   108.4600466 328.025600
   1224   1222   2488     1   109.7800468 425.094400
   1226   1225   2518     1   109.7800468 425.094400
   1226   1225   1227     1   108.4600466 328.025600
   1227   1225   2518     1   109.7800468 425.094400
   1230   1231   1232     1   108.0100461 406.684800
   1230   1231   1233     1   108.0100461 406.684800
   1230   1234   1235     1   108.0100461 406.684800
   1230   1234   1236     1   108.0100461 406.684800
   1230   1237   1238     1   108.0100461 406.684800
   1230   1237   1239     1   108.0100461 406.684800
   1231   1230   1259     1   110.1100470 384.091200
   1231   1243   1244     1   109.8000471 387.438400
   1231   1243   1245     1   109.8000471 387.438400
   1232   1231   1243     1   110.5600475 386.601600
   1232   1231   1233     1   109.7500473 328.025600
   1233   1231   1243     1   110.5600475 386.601600
   1234   1230   1259     1   110.1100470 384.091200
   1234   1246   1247     1   109.8000471 387.438400
   1234   1246   1248     1   109.8000471 387.438400
   1235   1234   1246     1   110.5600475 386.601600
   1235   1234   1236     1   109.7500473 328.025600
   1236   1234   1246     1   110.5600475 386.601600
   1237   1230   1259     1   110.1100470 384.091200
   1237   1240   1241     1   109.8000471 387.438400
   1237   1240   1242     1   109.8000471 387.438400
   1238   1237   1240     1   110.5600475 386.601600
   1238   1237   1239     1   109.7500473 328.025600
   1239   1237   1240     1   110.5600475 386.601600
   1240   1249   1250     1   109.5600471 388.275200
   1240   1249   1251     1   109.5600471 388.275200
   1241   1240   1249     1   109.8000471 387.438400
   1241   1240   1242     1   107.5800459 329.699200
   1242   1240   1249     1   109.8000471 387.438400
   1243   1255   1256     1   109.5600471 388.275200
   1243   1255   1257     1   109.5600471 388.275200
   1244   1243   1255     1   109.8000471 387.438400
   1244   1243   1245     1   107.5800459 329.699200
   1245   1243   1255     1   109.8000471 387.438400
   1246   1252   1253     1   109.5600471 388.275200
   1246   1252   1254     1   109.5600471 388.275200
   1247   1246   1252     1   109.8000471 387.438400
   1247   1246   1248     1   107.5800459 329.699200
   1248   1246   1252     1   109.8000471 387.438400
   1250   1249   1258     1   109.7800468 425.094400
   1250   1249   1251     1   108.4600466 328.025600
   1251   1249   1258     1   109.7800468 425.094400
   1253   1252   2548     1   109.7800468 425.094400
   1253   1252   1254     1   108.4600466 328.025600
   1254   1252   2548     1   109.7800468 425.094400
   1256   1255   2578     1   109.7800468 425.094400
   1256   1255   1257     1   108.4600466 328.025600
   1257   1255   2578     1   109.7800468 425.094400
   1260   1261   1262     1   108.0100461 406.684800
   1260   1261   1263     1   108.0100461 406.684800
   1260   1264   1265     1   108.0100461 406.684800
   1260   1264   1266     1   108.0100461 406.684800
   1260   1267   1268     1   108.0100461 406.684800
   1260   1267   1269     1   108.0100461 406.684800
   1261   1260   1289     1   110.1100470 384.091200
   1261   1273   1274     1   109.8000471 387.438400
   1261   1273   1275     1   109.8000471 387.438400
   1262   1261   1273     1   110.5600475 386.601600
   1262   1261   1263     1   109.7500473 328.025600
   1263   1261   1273     1   110.5600475 386.601600
   1264   1260   1289     1   110.1100470 384.091200
   1264   1276   1277     1   109.8000471 387.438400
   1264   1276   1278     1   109.8000471 387.438400
   1265   1264   1276     1   110.5600475 386.601600
   1265   1264   1266     1   109.7500473 328.025600
   1266   1264   1276     1   110.5600475 386.601600
   1267   1260   1289     1   110.1100470 384.091200
   1267   1270   1271     1   109.8000471 387.438400
   1267   1270   1272     1   109.8000471 387.438400
   1268   1267   1270     1   110.5600475 386.601600
   1268   1267   1269     1   109.7500473 328.025600
   1269   1267   1270     1   110.5600475 386.601600
   1270   1279   1280     1   109.5600471 388.275200
   1270   1279   1281     1   109.5600471 388.275200
   1271   1270   1279     1   109.8000471 387.438400
   1271   1270   1272     1   107.5800459 329.699200
   1272   1270   1279     1   109.8000471 387.438400
   1273   1285   1286     1   109.5600471 388.275200
   1273   1285   1287     1   109.5600471 388.275200
   1274   1273   1285     1   109.8000471 387.438400
   1274   1273   1275     1   107.5800459 329.699200
   1275   1273   1285     1   109.8000471 387.438400
   1276   1282   1283     1   109.5600471 388.275200
   1276   1282   1284     1   109.5600471 388.275200
   1277   1276   1282     1   109.8000471 387.438400
   1277   1276   1278     1   107.5800459 329.699200
   1278   1276   1282     1   109.8000471 387.438400
   1280   1279   1288     1   109.7800468 425.094400
   1280   1279   1281     1   108.4600466 328.025600
   1281   1279   1288     1   109.7800468 425.094400
   1283   1282   2608     1   109.7800468 425.094400
   1283   1282   1284     1   108.4600466 328.025600
   1284   1282   2608     1   109.7800468 425.094400
   1286   1285   2638     1   109.7800468 425.094400
   1286   1285   1287     1   108.4600466 328.025600
   1287   1285   2638     1   109.7800468 425.094400
   1290   1291   1292     1   108.0100461 406.684800
   1290   1291   1293     1   108.0100461 406.684800
   1290   1294   1295     1   108.0100461 406.684800
   1290   1294   1296     1   108.0100461 406.684800
   1290   1297   1298     1   108.0100461 406.684800
   1290   1297   1299     1   108.0100461 406.684800
   1291   1290   1319     1   110.1100470 384.091200
   1291   1303   1304     1   109.8000471 387.438400
   1291   1303   1305     1   109.8000471 387.438400
   1292   1291   1303     1   110.5600475 386.601600
   1292   1291   1293     1   109.7500473 328.025600
   1293   1291   1303     1   110.5600475 386.601600
   1294   1290   1319     1   110.1100470 384.091200
   1294   1306   1307     1   109.8000471 387.438400
   1294   1306   1308     1   109.8000471 387.438400
   1295   1294   1306     1   110.5600475 386.601600
   1295   1294   1296     1   109.7500473 328.025600
   1296   1294   1306     1   110.5600475 386.601600
   1297   1290   1319     1   110.1100470 384.091200
   1297   1300   1301     1   109.8000471 387.438400
   1297   1300   1302     1   109.8000471 387.438400
   1298   1297   1300     1   110.5600475 386.601600
   1298   1297   1299     1   109.7500473 328.025600
   1299   1297   1300     1   110.5600475 386.601600
   1300   1309   1310     1   109.5600471 388.275200
   1300   1309   1311     1   109.5600471 388.275200
   1301   1300   1309     1   109.8000471 387.438400
   1301   1300   1302     1   107.5800459 329.699200
   1302   1300   1309     1   109.8000471 387.438400
   1303   1315   1316     1   109.5600471 388.275200
   1303   1315   1317     1   109.5600471 388.275200
   1304   1303   1315     1   109.8000471 387.438400
   1304   1303   1305     1   107.5800459 329.699200
   1305   1303   1315     1   109.8000471 387.438400
   1306   1312   1313     1   109.5600471 388.275200
   1306   1312   1314     1   109.5600471 388.275200
   1307   1306   1312     1   109.8000471 387.438400
   1307   1306   1308     1   107.5800459 329.699200
   1308   1306   1312     1   109.8000471 387.438400
   1310   1309   1318     1   109.7800468 425.094400
   1310   1309   1311     1   108.4600466 328.025600
   1311   1309   1318     1   109.7800468 425.094400
   1313   1312   2668     1   109.7800468 425.094400
   1313   1312   1314     1   108.4600466 328.025600
   1314   1312   2668     1   109.7800468 425.094400
   1316   1315   2698     1   109.7800468 425.094400
   1316   1315   1317     1   108.4600466 328.025600
   1317   1315   2698     1   109.7800468 425.094400
   1320   1321   1322     1   108.0100461 406.684800
   1320   1321   1323     1   108.0100461 406.684800
   1320   1324   1325     1   108.0100461 406.684800
   1320   1324   1326     1   108.0100461 406.684800
   1320   1327   1328     1   108.0100461 406.684800
   1320   1327   1329     1   108.0100461 406.684800
   1321   1320   1349     1   110.1100470 384.091200
   1321   1333   1334     1   109.8000471 387.438400
   1321   1333   1335     1   109.8000471 387.438400
   1322   1321   1333     1   110.5600475 386.601600
   1322   1321   1323     1   109.7500473 328.025600
   1323   1321   1333     1   110.5600475 386.601600
   1324   1320   1349     1   110.1100470 384.091200
   1324   1336   1337     1   109.8000471 387.438400
   1324   1336   1338     1   109.8000471 387.438400
   1325   1324   1336     1   110.5600475 386.601600
   1325   1324   1326     1   109.7500473 328.025600
   1326   1324   1336     1   110.5600475 386.601600
   1327   1320   1349     1   110.1100470 384.091200
   1327   1330   1331     1   109.8000471 387.438400
   1327   1330   1332     1   109.8000471 387.438400
   1328   1327   1330     1   110.5600475 386.601600
   1328   1327   1329     1   109.7500473 328.025600
   1329   1327   1330     1   110.5600475 386.601600
   1330   1339   1340     1   109.5600471 388.275200
   1330   1339   1341     1   109.5600471 388.275200
   1331   1330   1339     1   109.8000471 387.438400
   1331   1330   1332     1   107.5800459 329.699200
   1332   1330   1339     1   109.8000471 387.438400
   1333   1345   1346     1   109.5600471 388.275200
   1333   1345   1347     1   109.5600471 388.275200
   1334   1333   1345     1   109.8000471 387.438400
   1334   1333   1335     1   107.5800459 329.699200
   1335   1333   1345     1   109.8000471 387.438400
   1336   1342   1343     1   109.5600471 388.275200
   1336   1342   1344     1   109.5600471 388.275200
   1337   1336   1342     1   109.8000471 387.438400
   1337   1336   1338     1   107.5800459 329.699200
   1338   1336   1342     1   109.8000471 387.438400
   1340   1339   1348     1   109.7800468 425.094400
   1340   1339   1341     1   108.4600466 328.025600
   1341   1339   1348     1   109.7800468 425.094400
   1343   1342   2728     1   109.7800468 425.094400
   1343   1342   1344     1   108.4600466 328.025600
   1344   1342   2728     1   109.7800468 425.094400
   1346   1345   2758     1   109.7800468 425.094400
   1346   1345   1347     1   108.4600466 328.025600
   1347   1345   2758     1   109.7800468 425.094400
   1350   1351   1352     1   108.0100461 406.684800
   1350   1351   1353     1   108.0100461 406.684800
   1350   1354   1355     1   108.0100461 406.684800
   1350   1354   1356     1   108.0100461 406.684800
   1350   1357   1358     1   108.0100461 406.684800
   1350   1357   1359     1   108.0100461 406.684800
   1351   1350   1379     1   110.1100470 384.091200
   1351   1363   1364     1   109.8000471 387.438400
   1351   1363   1365     1   109.8000471 387.438400
   1352   1351   1363     1   110.5600475 386.601600
   1352   1351   1353     1   109.7500473 328.025600
   1353   1351   1363     1   110.5600475 386.601600
   1354   1350   1379     1   110.1100470 384.091200
   1354   1366   1367     1   109.8000471 387.438400
   1354   1366   1368     1   109.8000471 387.438400
   1355   1354   1366     1   110.5600475 386.601600
   1355   1354   1356     1   109.7500473 328.025600
   1356   1354   1366     1   110.5600475 386.601600
   1357   1350   1379     1   110.1100470 384.091200
   1357   1360   1361     1   109.8000471 387.438400
   1357   1360   1362     1   109.8000471 387.438400
   1358   1357   1360     1   110.5600475 386.601600
   1358   1357   1359     1   109.7500473 328.025600
   1359   1357   1360     1   110.5600475 386.601600
   1360   1369   1370     1   109.5600471 388.275200
   1360   1369   1371     1   109.5600471 388.275200
   1361   1360   1369     1   109.8000471 387.438400
   1361   1360   1362     1   107.5800459 329.699200
   1362   1360   1369     1   109.8000471 387.438400
   1363   1375   1376     1   109.5600471 388.275200
   1363   1375   1377     1   109.5600471 388.275200
   1364   1363   1375     1   109.8000471 387.438400
   1364   1363   1365     1   107.5800459 329.699200
   1365   1363   1375     1   109.8000471 387.438400
   1366   1372   1373     1   109.5600471 388.275200
   1366   1372   1374     1   109.5600471 388.275200
   1367   1366   1372     1   109.8000471 387.438400
   1367   1366   1368     1   107.5800459 329.699200
   1368   1366   1372     1   109.8000471 387.438400
   1370   1369   1378     1   109.7800468 425.094400
   1370   1369   1371     1   108.4600466 328.025600
   1371   1369   1378     1   109.7800468 425.094400
   1373   1372   2788     1   109.7800468 425.094400
   1373   1372   1374     1   108.4600466 328.025600
   1374   1372   2788     1   109.7800468 425.094400
   1376   1375   2818     1   109.7800468 425.094400
   1376   1375   1377     1   108.4600466 328.025600
   1377   1375   2818     1   109.7800468 425.094400
   1380   1381   1382     1   108.0100461 406.684800
   1380   1381   1383     1   108.0100461 406.684800
   1380   1384   1385     1   108.0100461 406.684800
   1380   1384   1386     1   108.0100461 406.684800
   1380   1387   1388     1   108.0100461 406.684800
   1380   1387   1389     1   108.0100461 406.684800
   1381   1380   1409     1   110.1100470 384.091200
   1381   1393   1394     1   109.8000471 387.438400
   1381   1393   1395     1   109.8000471 387.438400
   1382   1381   1393     1   110.5600475 386.601600
   1382   1381   1383     1   109.7500473 328.025600
   1383   1381   1393     1   110.5600475 386.601600
   1384   1380   1409     1   110.1100470 384.091200
   1384   1396   1397     1   109.8000471 387.438400
   1384   1396   1398     1   109.8000471 387.438400
   1385   1384   1396     1   110.5600475 386.601600
   1385   1384   1386     1   109.7500473 328.025600
   1386   1384   1396     1   110.5600475 386.601600
   1387   1380   1409     1   110.1100470 384.091200
   1387   1390   1391     1   109.8000471 387.438400
   1387   1390   1392     1   109.8000471 387.438400
   1388   1387   1390     1   110.5600475 386.601600
   1388   1387   1389     1   109.7500473 328.025600
   1389   1387   1390     1   110.5600475 386.601600
   1390   1399   1400     1   109.5600471 388.275200
   1390   1399   1401     1   109.5600471 388.275200
   1391   1390   1399     1   109.8000471 387.438400
   1391   1390   1392     1   107.5800459 329.699200
   1392   1390   1399     1   109.8000471 387.438400
   1393   1405   1406     1   109.5600471 388.275200
   1393   1405   1407     1   109.5600471 388.275200
   1394   1393   1405     1   109.8000471 387.438400
   1394   1393   1395     1   107.5800459 329.699200
   1395   1393   1405     1   109.8000471 387.438400
   1396   1402   1403     1   109.5600471 388.275200
   1396   1402   1404     1   109.5600471 388.275200
   1397   1396   1402     1   109.8000471 387.438400
   1397   1396   1398     1   107.5800459 329.699200
   1398   1396   1402     1   109.8000471 387.438400
   1400   1399   1408     1   109.7800468 425.094400
   1400   1399   1401     1   108.4600466 328.025600
   1401   1399   1408     1   109.7800468 425.094400
   1403   1402   2832     1   109.7800468 425.094400
   1403   1402   1404     1   108.4600466 328.025600
   1404   1402   2832     1   109.7800468 425.094400
   1406   1405   2846     1   109.7800468 425.094400
   1406   1405   1407     1   108.4600466 328.025600
   1407   1405   2846     1   109.7800468 425.094400
   1410   1411   1412     1   108.0100461 406.684800
   1410   1411   1413     1   108.0100461 406.684800
   1410   1414   1415     1   108.0100461 406.684800
   1410   1414   1416     1   108.0100461 406.684800
   1410   1417   1418     1   108.0100461 406.684800
   1410   1417   1419     1   108.0100461 406.684800
   1411   1410   1439     1   110.1100470 384.091200
   1411   1423   1424     1   109.8000471 387.438400
   1411   1423   1425     1   109.8000471 387.438400
   1412   1411   1423     1   110.5600475 386.601600
   1412   1411   1413     1   109.7500473 328.025600
   1413   1411   1423     1   110.5600475 386.601600
   1414   1410   1439     1   110.1100470 384.091200
   1414   1426   1427     1   109.8000471 387.438400
   1414   1426   1428     1   109.8000471 387.438400
   1415   1414   1426     1   110.5600475 386.601600
   1415   1414   1416     1   109.7500473 328.025600
   1416   1414   1426     1   110.5600475 386.601600
   1417   1410   1439     1   110.1100470 384.091200
   1417   1420   1421     1   109.8000471 387.438400
   1417   1420   1422     1   109.8000471 387.438400
   1418   1417   1420     1   110.5600475 386.601600
   1418   1417   1419     1   109.7500473 328.025600
   1419   1417   1420     1   110.5600475 386.601600
   1420   1429   1430     1   109.5600471 388.275200
   1420   1429   1431     1   109.5600471 388.275200
   1421   1420   1429     1   109.8000471 387.438400
   1421   1420   1422     1   107.5800459 329.699200
   1422   1420   1429     1   109.8000471 387.438400
   1423   1435   1436     1   109.5600471 388.275200
   1423   1435   1437     1   109.5600471 388.275200
   1424   1423   1435     1   109.8000471 387.438400
   1424   1423   1425     1   107.5800459 329.699200
   1425   1423   1435     1   109.8000471 387.438400
   1426   1432   1433     1   109.5600471 388.275200
   1426   1432   1434     1   109.5600471 388.275200
   1427   1426   1432     1   109.8000471 387.438400
   1427   1426   1428     1   107.5800459 329.699200
   1428   1426   1432     1   109.8000471 387.438400
   1430   1429   1438     1   109.7800468 425.094400
   1430   1429   1431     1   108.4600466 328.025600
   1431   1429   1438     1   109.7800468 425.094400
   1433   1432   2860     1   109.7800468 425.094400
   1433   1432   1434     1   108.4600466 328.025600
   1434   1432   2860     1   109.7800468 425.094400
   1436   1435   2874     1   109.7800468 425.094400
   1436   1435   1437     1   108.4600466 328.025600
   1437   1435   2874     1   109.7800468 425.094400
   1440   1441   1442     1   108.0100461 406.684800
   1440   1441   1443     1   108.0100461 406.684800
   1440   1444   1445     1   108.0100461 406.684800
   1440   1444   1446     1   108.0100461 406.684800
   1440   1447   1448     1   108.0100461 406.684800
   1440   1447   1449     1   108.0100461 406.684800
   1441   1440   1469     1   110.1100470 384.091200
   1441   1453   1454     1   109.8000471 387.438400
   1441   1453   1455     1   109.8000471 387.438400
   1442   1441   1453     1   110.5600475 386.601600
   1442   1441   1443     1   109.7500473 328.025600
   1443   1441   1453     1   110.5600475 386.601600
   1444   1440   1469     1   110.1100470 384.091200
   1444   1456   1457     1   109.8000471 387.438400
   1444   1456   1458     1   109.8000471 387.438400
   1445   1444   1456     1   110.5600475 386.601600
   1445   1444   1446     1   109.7500473 328.025600
   1446   1444   1456     1   110.5600475 386.601600
   1447   1440   1469     1   110.1100470 384.091200
   1447   1450   1451     1   109.8000471 387.438400
   1447   1450   1452     1   109.8000471 387.438400
   1448   1447   1450     1   110.5600475 386.601600
   1448   1447   1449     1   109.7500473 328.025600
   1449   1447   1450     1   110.5600475 386.601600
   1450   1459   1460     1   109.5600471 388.275200
   1450   1459   1461     1   109.5600471 388.275200
   1451   1450   1459     1   109.8000471 387.438400
   1451   1450   1452     1   107.5800459 329.699200
   1452   1450   1459     1   109.8000471 387.438400
   1453   1465   1466     1   109.5600471 388.275200
   1453   1465   1467     1   109.5600471 388.275200
   1454   1453   1465     1   109.8000471 387.438400
   1454   1453   1455     1   107.5800459 329.699200
   1455   1453   1465     1   109.8000471 387.438400
   1456   1462   1463     1   109.5600471 388.275200
   1456   1462   1464     1   109.5600471 388.275200
   1457   1456   1462     1   109.8000471 387.438400
   1457   1456   1458     1   107.5800459 329.699200
   1458   1456   1462     1   109.8000471 387.438400
   1460   1459   1468     1   109.7800468 425.094400
   1460   1459   1461     1   108.4600466 328.025600
   1461   1459   1468     1   109.7800468 425.094400
   1463   1462   2888     1   109.7800468 425.094400
   1463   1462   1464     1   108.4600466 328.025600
   1464   1462   2888     1   109.7800468 425.094400
   1466   1465   2902     1   109.7800468 425.094400
   1466   1465   1467     1   108.4600466 328.025600
   1467   1465   2902     1   109.7800468 425.094400
   1470   1471   1472     1   108.0100461 406.684800
   1470   1471   1473     1   108.0100461 406.684800
   1470   1474   1475     1   108.0100461 406.684800
   1470   1474   1476     1   108.0100461 406.684800
   1470   1477   1478     1   108.0100461 406.684800
   1470   1477   1479     1   108.0100461 406.684800
   1471   1470   1499     1   110.1100470 384.091200
   1471   1483   1484     1   109.8000471 387.438400
   1471   1483   1485     1   109.8000471 387.438400
   1472   1471   1483     1   110.5600475 386.601600
   1472   1471   1473     1   109.7500473 328.025600
   1473   1471   1483     1   110.5600475 386.601600
   1474   1470   1499     1   110.1100470 384.091200
   1474   1486   1487     1   109.8000471 387.438400
   1474   1486   1488     1   109.8000471 387.438400
   1475   1474   1486     1   110.5600475 386.601600
   1475   1474   1476     1   109.7500473 328.025600
   1476   1474   1486     1   110.5600475 386.601600
   1477   1470   1499     1   110.1100470 384.091200
   1477   1480   1481     1   109.8000471 387.438400
   1477   1480   1482     1   109.8000471 387.438400
   1478   1477   1480     1   110.5600475 386.601600
   1478   1477   1479     1   109.7500473 328.025600
   1479   1477   1480     1   110.5600475 386.601600
   1480   1489   1490     1   109.5600471 388.275200
   1480   1489   1491     1   109.5600471 388.275200
   1481   1480   1489     1   109.8000471 387.438400
   1481   1480   1482     1   107.5800459 329.699200
   1482   1480   1489     1   109.8000471 387.438400
   1483   1495   1496     1   109.5600471 388.275200
   1483   1495   1497     1   109.5600471 388.275200
   1484   1483   1495     1   109.8000471 387.438400
   1484   1483   1485     1   107.5800459 329.699200
   1485   1483   1495     1   109.8000471 387.438400
   1486   1492   1493     1   109.5600471 388.275200
   1486   1492   1494     1   109.5600471 388.275200
   1487   1486   1492     1   109.8000471 387.438400
   1487   1486   1488     1   107.5800459 329.699200
   1488   1486   1492     1   109.8000471 387.438400
   1490   1489   1498     1   109.7800468 425.094400
   1490   1489   1491     1   108.4600466 328.025600
   1491   1489   1498     1   109.7800468 425.094400
   1493   1492   2916     1   109.7800468 425.094400
   1493   1492   1494     1   108.4600466 328.025600
   1494   1492   2916     1   109.7800468 425.094400
   1496   1495   2930     1   109.7800468 425.094400
   1496   1495   1497     1   108.4600466 328.025600
   1497   1495   2930     1   109.7800468 425.094400
   1500   1501   1502     1   108.0100461 406.684800
   1500   1501   1503     1   108.0100461 406.684800
   1500   1504   1505     1   108.0100461 406.684800
   1500   1504   1506     1   108.0100461 406.684800
   1500   1507   1508     1   108.0100461 406.684800
   1500   1507   1509     1   108.0100461 406.684800
   1501   1500   1529     1   110.1100470 384.091200
   1501   1513   1514     1   109.8000471 387.438400
   1501   1513   1515     1   109.8000471 387.438400
   1502   1501   1513     1   110.5600475 386.601600
   1502   1501   1503     1   109.7500473 328.025600
   1503   1501   1513     1   110.5600475 386.601600
   1504   1500   1529     1   110.1100470 384.091200
   1504   1516   1517     1   109.8000471 387.438400
   1504   1516   1518     1   109.8000471 387.438400
   1505   1504   1516     1   110.5600475 386.601600
   1505   1504   1506     1   109.7500473 328.025600
   1506   1504   1516     1   110.5600475 386.601600
   1507   1500   1529     1   110.1100470 384.091200
   1507   1510   1511     1   109.8000471 387.438400
   1507   1510   1512     1   109.8000471 387.438400
   1508   1507   1510     1   110.5600475 386.601600
   1508   1507   1509     1   109.7500473 328.025600
   1509   1507   1510     1   110.5600475 386.601600
   1510   1519   1520     1   109.5600471 388.275200
   1510   1519   1521     1   109.5600471 388.275200
   1511   1510   1519     1   109.8000471 387.438400
   1511   1510   1512     1   107.5800459 329.699200
   1512   1510   1519     1   109.8000471 387.438400
   1513   1525   1526     1   109.5600471 388.275200
   1513   1525   1527     1   109.5600471 388.275200
   1514   1513   1525     1   109.8000471 387.438400
   1514   1513   1515     1   107.5800459 329.699200
   1515   1513   1525     1   109.8000471 387.438400
   1516   1522   1523     1   109.5600471 388.275200
   1516   1522   1524     1   109.5600471 388.275200
   1517   1516   1522     1   109.8000471 387.438400
   1517   1516   1518     1   107.5800459 329.699200
   1518   1516   1522     1   109.8000471 387.438400
   1520   1519   1528     1   109.7800468 425.094400
   1520   1519   1521     1   108.4600466 328.025600
   1521   1519   1528     1   109.7800468 425.094400
   1523   1522   2944     1   109.7800468 425.094400
   1523   1522   1524     1   108.4600466 328.025600
   1524   1522   2944     1   109.7800468 425.094400
   1526   1525   2958     1   109.7800468 425.094400
   1526   1525   1527     1   108.4600466 328.025600
   1527   1525   2958     1   109.7800468 425.094400
   1530   1531   1532     1   108.0100461 406.684800
   1530   1531   1533     1   108.0100461 406.684800
   1530   1534   1535     1   108.0100461 406.684800
   1530   1534   1536     1   108.0100461 406.684800
   1530   1537   1538     1   108.0100461 406.684800
   1530   1537   1539     1   108.0100461 406.684800
   1531   1530   1559     1   110.1100470 384.091200
   1531   1543   1544     1   109.8000471 387.438400
   1531   1543   1545     1   109.8000471 387.438400
   1532   1531   1543     1   110.5600475 386.601600
   1532   1531   1533     1   109.7500473 328.025600
   1533   1531   1543     1   110.5600475 386.601600
   1534   1530   1559     1   110.1100470 384.091200
   1534   1546   1547     1   109.8000471 387.438400
   1534   1546   1548     1   109.8000471 387.438400
   1535   1534   1546     1   110.5600475 386.601600
   1535   1534   1536     1   109.7500473 328.025600
   1536   1534   1546     1   110.5600475 386.601600
   1537   1530   1559     1   110.1100470 384.091200
   1537   1540   1541     1   109.8000471 387.438400
   1537   1540   1542     1   109.8000471 387.438400
   1538   1537   1540     1   110.5600475 386.601600
   1538   1537   1539     1   109.7500473 328.025600
   1539   1537   1540     1   110.5600475 386.601600
   1540   1549   1550     1   109.5600471 388.275200
   1540   1549   1551     1   109.5600471 388.275200
   1541   1540   1549     1   109.8000471 387.438400
   1541   1540   1542     1   107.5800459 329.699200
   1542   1540   1549     1   109.8000471 387.438400
   1543   1555   1556     1   109.5600471 388.275200
   1543   1555   1557     1   109.5600471 388.275200
   1544   1543   1555     1   109.8000471 387.438400
   1544   1543   1545     1   107.5800459 329.699200
   1545   1543   1555     1   109.8000471 387.438400
   1546   1552   1553     1   109.5600471 388.275200
   1546   1552   1554     1   109.5600471 388.275200
   1547   1546   1552     1   109.8000471 387.438400
   1547   1546   1548     1   107.5800459 329.699200
   1548   1546   1552     1   109.8000471 387.438400
   1550   1549   1558     1   109.7800468 425.094400
   1550   1549   1551     1   108.4600466 328.025600
   1551   1549   1558     1   109.7800468 425.094400
   1553   1552   2972     1   109.7800468 425.094400
   1553   1552   1554     1   108.4600466 328.025600
   1554   1552   2972     1   109.7800468 425.094400
   1556   1555   2986     1   109.7800468 425.094400
   1556   1555   1557     1   108.4600466 328.025600
   1557   1555   2986     1   109.7800468 425.094400
   1560   1561   1562     1   108.0100461 406.684800
   1560   1561   1563     1   108.0100461 406.684800
   1560   1564   1565     1   108.0100461 406.684800
   1560   1564   1566     1   108.0100461 406.684800
   1560   1567   1568     1   108.0100461 406.684800
   1560   1567   1569     1   108.0100461 406.684800
   1561   1560   1589     1   110.1100470 384.091200
   1561   1573   1574     1   109.8000471 387.438400
   1561   1573   1575     1   109.8000471 387.438400
   1562   1561   1573     1   110.5600475 386.601600
   1562   1561   1563     1   109.7500473 328.025600
   1563   1561   1573     1   110.5600475 386.601600
   1564   1560   1589     1   110.1100470 384.091200
   1564   1576   1577     1   109.8000471 387.438400
   1564   1576   1578     1   109.8000471 387.438400
   1565   1564   1576     1   110.5600475 386.601600
   1565   1564   1566     1   109.7500473 328.025600
   1566   1564   1576     1   110.5600475 386.601600
   1567   1560   1589     1   110.1100470 384.091200
   1567   1570   1571     1   109.8000471 387.438400
   1567   1570   1572     1   109.8000471 387.438400
   1568   1567   1570     1   110.5600475 386.601600
   1568   1567   1569     1   109.7500473 328.025600
   1569   1567   1570     1   110.5600475 386.601600
   1570   1579   1580     1   109.5600471 388.275200
   1570   1579   1581     1   109.5600471 388.275200
   1571   1570   1579     1   109.8000471 387.438400
   1571   1570   1572     1   107.5800459 329.699200
   1572   1570   1579     1   109.8000471 387.438400
   1573   1585   1586     1   109.5600471 388.275200
   1573   1585   1587     1   109.5600471 388.275200
   1574   1573   1585     1   109.8000471 387.438400
   1574   1573   1575     1   107.5800459 329.699200
   1575   1573   1585     1   109.8000471 387.438400
   1576   1582   1583     1   109.5600471 388.275200
   1576   1582   1584     1   109.5600471 388.275200
   1577   1576   1582     1   109.8000471 387.438400
   1577   1576   1578     1   107.5800459 329.699200
   1578   1576   1582     1   109.8000471 387.438400
   1580   1579   1588     1   109.7800468 425.094400
   1580   1579   1581     1   108.4600466 328.025600
   1581   1579   1588     1   109.7800468 425.094400
   1583   1582   3000     1   109.7800468 425.094400
   1583   1582   1584     1   108.4600466 328.025600
   1584   1582   3000     1   109.7800468 425.094400
   1586   1585   3014     1   109.7800468 425.094400
   1586   1585   1587     1   108.4600466 328.025600
   1587   1585   3014     1   109.7800468 425.094400
   1590   1591   1592     1   108.0100461 406.684800
   1590   1591   1593     1   108.0100461 406.684800
   1590   1594   1595     1   108.0100461 406.684800
   1590   1594   1596     1   108.0100461 406.684800
   1590   1597   1598     1   108.0100461 406.684800
   1590   1597   1599     1   108.0100461 406.684800
   1591   1590   1619     1   110.1100470 384.091200
   1591   1603   1604     1   109.8000471 387.438400
   1591   1603   1605     1   109.8000471 387.438400
   1592   1591   1603     1   110.5600475 386.601600
   1592   1591   1593     1   109.7500473 328.025600
   1593   1591   1603     1   110.5600475 386.601600
   1594   1590   1619     1   110.1100470 384.091200
   1594   1606   1607     1   109.8000471 387.438400
   1594   1606   1608     1   109.8000471 387.438400
   1595   1594   1606     1   110.5600475 386.601600
   1595   1594   1596     1   109.7500473 328.025600
   1596   1594   1606     1   110.5600475 386.601600
   1597   1590   1619     1   110.1100470 384.091200
   1597   1600   1601     1   109.8000471 387.438400
   1597   1600   1602     1   109.8000471 387.438400
   1598   1597   1600     1   110.5600475 386.601600
   1598   1597   1599     1   109.7500473 328.025600
   1599   1597   1600     1   110.5600475 386.601600
   1600   1609   1610     1   109.5600471 388.275200
   1600   1609   1611     1   109.5600471 388.275200
   1601   1600   1609     1   109.8000471 387.438400
   1601   1600   1602     1   107.5800459 329.699200
   1602   1600   1609     1   109.8000471 387.438400
   1603   1615   1616     1   109.5600471 388.275200
   1603   1615   1617     1   109.5600471 388.275200
   1604   1603   1615     1   109.8000471 387.438400
   1604   1603   1605     1   107.5800459 329.699200
   1605   1603   1615     1   109.8000471 387.438400
   1606   1612   1613     1   109.5600471 388.275200
   1606   1612   1614     1   109.5600471 388.275200
   1607   1606   1612     1   109.8000471 387.438400
   1607   1606   1608     1   107.5800459 329.699200
   1608   1606   1612     1   109.8000471 387.438400
   1610   1609   1618     1   109.7800468 425.094400
   1610   1609   1611     1   108.4600466 328.025600
   1611   1609   1618     1   109.7800468 425.094400
   1613   1612   3028     1   109.7800468 425.094400
   1613   1612   1614     1   108.4600466 328.025600
   1614   1612   3028     1   109.7800468 425.094400
   1616   1615   3042     1   109.7800468 425.094400
   1616   1615   1617     1   108.4600466 328.025600
   1617   1615   3042     1   109.7800468 425.094400
   1620   1621   1622     1   108.0100461 406.684800
   1620   1621   1623     1   108.0100461 406.684800
   1620   1624   1625     1   108.0100461 406.684800
   1620   1624   1626     1   108.0100461 406.684800
   1620   1627   1628     1   108.0100461 406.684800
   1620   1627   1629     1   108.0100461 406.684800
   1621   1620   1649     1   110.1100470 384.091200
   1621   1633   1634     1   109.8000471 387.438400
   1621   1633   1635     1   109.8000471 387.438400
   1622   1621   1633     1   110.5600475 386.601600
   1622   1621   1623     1   109.7500473 328.025600
   1623   1621   1633     1   110.5600475 386.601600
   1624   1620   1649     1   110.1100470 384.091200
   1624   1636   1637     1   109.8000471 387.438400
   1624   1636   1638     1   109.8000471 387.438400
   1625   1624   1636     1   110.5600475 386.601600
   1625   1624   1626     1   109.7500473 328.025600
   1626   1624   1636     1   110.5600475 386.601600
   1627   1620   1649     1   110.1100470 384.091200
   1627   1630   1631     1   109.8000471 387.438400
   1627   1630   1632     1   109.8000471 387.438400
   1628   1627   1630     1   110.5600475 386.601600
   1628   1627   1629     1   109.7500473 328.025600
   1629   1627   1630     1   110.5600475 386.601600
   1630   1639   1640     1   109.5600471 388.275200
   1630   1639   1641     1   109.5600471 388.275200
   1631   1630   1639     1   109.8000471 387.438400
   1631   1630   1632     1   107.5800459 329.699200
   1632   1630   1639     1   109.8000471 387.438400
   1633   1645   1646     1   109.5600471 388.275200
   1633   1645   1647     1   109.5600471 388.275200
   1634   1633   1645     1   109.8000471 387.438400
   1634   1633   1635     1   107.5800459 329.699200
   1635   1633   1645     1   109.8000471 387.438400
   1636   1642   1643     1   109.5600471 388.275200
   1636   1642   1644     1   109.5600471 388.275200
   1637   1636   1642     1   109.8000471 387.438400
   1637   1636   1638     1   107.5800459 329.699200
   1638   1636   1642     1   109.8000471 387.438400
   1640   1639   1648     1   109.7800468 425.094400
   1640   1639   1641     1   108.4600466 328.025600
   1641   1639   1648     1   109.7800468 425.094400
   1643   1642   3056     1   109.7800468 425.094400
   1643   1642   1644     1   108.4600466 328.025600
   1644   1642   3056     1   109.7800468 425.094400
   1646   1645   3070     1   109.7800468 425.094400
   1646   1645   1647     1   108.4600466 328.025600
   1647   1645   3070     1   109.7800468 425.094400
   1650   1651   1652     1   108.0100461 406.684800
   1650   1651   1653     1   108.0100461 406.684800
   1650   1654   1655     1   108.0100461 406.684800
   1650   1654   1656     1   108.0100461 406.684800
   1650   1657   1658     1   108.0100461 406.684800
   1650   1657   1659     1   108.0100461 406.684800
   1651   1650   1679     1   110.1100470 384.091200
   1651   1663   1664     1   109.8000471 387.438400
   1651   1663   1665     1   109.8000471 387.438400
   1652   1651   1663     1   110.5600475 386.601600
   1652   1651   1653     1   109.7500473 328.025600
   1653   1651   1663     1   110.5600475 386.601600
   1654   1650   1679     1   110.1100470 384.091200
   1654   1666   1667     1   109.8000471 387.438400
   1654   1666   1668     1   109.8000471 387.438400
   1655   1654   1666     1   110.5600475 386.601600
   1655   1654   1656     1   109.7500473 328.025600
   1656   1654   1666     1   110.5600475 386.601600
   1657   1650   1679     1   110.1100470 384.091200
   1657   1660   1661     1   109.8000471 387.438400
   1657   1660   1662     1   109.8000471 387.438400
   1658   1657   1660     1   110.5600475 386.601600
   1658   1657   1659     1   109.7500473 328.025600
   1659   1657   1660     1   110.5600475 386.601600
   1660   1669   1670     1   109.5600471 388.275200
   1660   1669   1671     1   109.5600471 388.275200
   1661   1660   1669     1   109.8000471 387.438400
   1661   1660   1662     1   107.5800459 329.699200
   1662   1660   1669     1   109.8000471 387.438400
   1663   1675   1676     1   109.5600471 388.275200
   1663   1675   1677     1   109.5600471 388.275200
   1664   1663   1675     1   109.8000471 387.438400
   1664   1663   1665     1   107.5800459 329.699200
   1665   1663   1675     1   109.8000471 387.438400
   1666   1672   1673     1   109.5600471 388.275200
   1666   1672   1674     1   109.5600471 388.275200
   1667   1666   1672     1   109.8000471 387.438400
   1667   1666   1668     1   107.5800459 329.699200
   1668   1666   1672     1   109.8000471 387.438400
   1670   1669   1678     1   109.7800468 425.094400
   1670   1669   1671     1   108.4600466 328.025600
   1671   1669   1678     1   109.7800468 425.094400
   1673   1672   3084     1   109.7800468 425.094400
   1673   1672   1674     1   108.4600466 328.025600
   1674   1672   3084     1   109.7800468 425.094400
   1676   1675   3098     1   109.7800468 425.094400
   1676   1675   1677     1   108.4600466 328.025600
   1677   1675   3098     1   109.7800468 425.094400
   1680   1681   1682     1   108.0100461 406.684800
   1680   1681   1683     1   108.0100461 406.684800
   1680   1684   1685     1   108.0100461 406.684800
   1680   1684   1686     1   108.0100461 406.684800
   1680   1687   1688     1   108.0100461 406.684800
   1680   1687   1689     1   108.0100461 406.684800
   1681   1680   1709     1   110.1100470 384.091200
   1681   1693   1694     1   109.8000471 387.438400
   1681   1693   1695     1   109.8000471 387.438400
   1682   1681   1693     1   110.5600475 386.601600
   1682   1681   1683     1   109.7500473 328.025600
   1683   1681   1693     1   110.5600475 386.601600
   1684   1680   1709     1   110.1100470 384.091200
   1684   1696   1697     1   109.8000471 387.438400
   1684   1696   1698     1   109.8000471 387.438400
   1685   1684   1696     1   110.5600475 386.601600
   1685   1684   1686     1   109.7500473 328.025600
   1686   1684   1696     1   110.5600475 386.601600
   1687   1680   1709     1   110.1100470 384.091200
   1687   1690   1691     1   109.8000471 387.438400
   1687   1690   1692     1   109.8000471 387.438400
   1688   1687   1690     1   110.5600475 386.601600
   1688   1687   1689     1   109.7500473 328.025600
   1689   1687   1690     1   110.5600475 386.601600
   1690   1699   1700     1   109.5600471 388.275200
   1690   1699   1701     1   109.5600471 388.275200
   1691   1690   1699     1   109.8000471 387.438400
   1691   1690   1692     1   107.5800459 329.699200
   1692   1690   1699     1   109.8000471 387.438400
   1693   1705   1706     1   109.5600471 388.275200
   1693   1705   1707     1   109.5600471 388.275200
   1694   1693   1705     1   109.8000471 387.438400
   1694   1693   1695     1   107.5800459 329.699200
   1695   1693   1705     1   109.8000471 387.438400
   1696   1702   1703     1   109.5600471 388.275200
   1696   1702   1704     1   109.5600471 388.275200
   1697   1696   1702     1   109.8000471 387.438400
   1697   1696   1698     1   107.5800459 329.699200
   1698   1696   1702     1   109.8000471 387.438400
   1700   1699   1708     1   109.7800468 425.094400
   1700   1699   1701     1   108.4600466 328.025600
   1701   1699   1708     1   109.7800468 425.094400
   1703   1702   3112     1   109.7800468 425.094400
   1703   1702   1704     1   108.4600466 328.025600
   1704   1702   3112     1   109.7800468 425.094400
   1706   1705   3126     1   109.7800468 425.094400
   1706   1705   1707     1   108.4600466 328.025600
   1707   1705   3126     1   109.7800468 425.094400
   1710   1711   1712     1   108.0100461 406.684800
   1710   1711   1713     1   108.0100461 406.684800
   1710   1714   1715     1   108.0100461 406.684800
   1710   1714   1716     1   108.0100461 406.684800
   1710   1717   1718     1   108.0100461 406.684800
   1710   1717   1719     1   108.0100461 406.684800
   1711   1710   1739     1   110.1100470 384.091200
   1711   1723   1724     1   109.8000471 387.438400
   1711   1723   1725     1   109.8000471 387.438400
   1712   1711   1723     1   110.5600475 386.601600
   1712   1711   1713     1   109.7500473 328.025600
   1713   1711   1723     1   110.5600475 386.601600
   1714   1710   1739     1   110.1100470 384.091200
   1714   1726   1727     1   109.8000471 387.438400
   1714   1726   1728     1   109.8000471 387.438400
   1715   1714   1726     1   110.5600475 386.601600
   1715   1714   1716     1   109.7500473 328.025600
   1716   1714   1726     1   110.5600475 386.601600
   1717   1710   1739     1   110.1100470 384.091200
   1717   1720   1721     1   109.8000471 387.438400
   1717   1720   1722     1   109.8000471 387.438400
   1718   1717   1720     1   110.5600475 386.601600
   1718   1717   1719     1   109.7500473 328.025600
   1719   1717   1720     1   110.5600475 386.601600
   1720   1729   1730     1   109.5600471 388.275200
   1720   1729   1731     1   109.5600471 388.275200
   1721   1720   1729     1   109.8000471 387.438400
   1721   1720   1722     1   107.5800459 329.699200
   1722   1720   1729     1   109.8000471 387.438400
   1723   1735   1736     1   109.5600471 388.275200
   1723   1735   1737     1   109.5600471 388.275200
   1724   1723   1735     1   109.8000471 387.438400
   1724   1723   1725     1   107.5800459 329.699200
   1725   1723   1735     1   109.8000471 387.438400
   1726   1732   1733     1   109.5600471 388.275200
   1726   1732   1734     1   109.5600471 388.275200
   1727   1726   1732     1   109.8000471 387.438400
   1727   1726   1728     1   107.5800459 329.699200
   1728   1726   1732     1   109.8000471 387.438400
   1730   1729   1738     1   109.7800468 425.094400
   1730   1729   1731     1   108.4600466 328.025600
   1731   1729   1738     1   109.7800468 425.094400
   1733   1732   3140     1   109.7800468 425.094400
   1733   1732   1734     1   108.4600466 328.025600
   1734   1732   3140     1   109.7800468 425.094400
   1736   1735   3154     1   109.7800468 425.094400
   1736   1735   1737     1   108.4600466 328.025600
   1737   1735   3154     1   109.7800468 425.094400
   1740   1741   1742     1   108.0100461 406.684800
   1740   1741   1743     1   108.0100461 406.684800
   1740   1744   1745     1   108.0100461 406.684800
   1740   1744   1746     1   108.0100461 406.684800
   1740   1747   1748     1   108.0100461 406.684800
   1740   1747   1749     1   108.0100461 406.684800
   1741   1740   1769     1   110.1100470 384.091200
   1741   1753   1754     1   109.8000471 387.438400
   1741   1753   1755     1   109.8000471 387.438400
   1742   1741   1753     1   110.5600475 386.601600
   1742   1741   1743     1   109.7500473 328.025600
   1743   1741   1753     1   110.5600475 386.601600
   1744   1740   1769     1   110.1100470 384.091200
   1744   1756   1757     1   109.8000471 387.438400
   1744   1756   1758     1   109.8000471 387.438400
   1745   1744   1756     1   110.5600475 386.601600
   1745   1744   1746     1   109.7500473 328.025600
   1746   1744   1756     1   110.5600475 386.601600
   1747   1740   1769     1   110.1100470 384.091200
   1747   1750   1751     1   109.8000471 387.438400
   1747   1750   1752     1   109.8000471 387.438400
   1748   1747   1750     1   110.5600475 386.601600
   1748   1747   1749     1   109.7500473 328.025600
   1749   1747   1750     1   110.5600475 386.601600
   1750   1759   1760     1   109.5600471 388.275200
   1750   1759   1761     1   109.5600471 388.275200
   1751   1750   1759     1   109.8000471 387.438400
   1751   1750   1752     1   107.5800459 329.699200
   1752   1750   1759     1   109.8000471 387.438400
   1753   1765   1766     1   109.5600471 388.275200
   1753   1765   1767     1   109.5600471 388.275200
   1754   1753   1765     1   109.8000471 387.438400
   1754   1753   1755     1   107.5800459 329.699200
   1755   1753   1765     1   109.8000471 387.438400
   1756   1762   1763     1   109.5600471 388.275200
   1756   1762   1764     1   109.5600471 388.275200
   1757   1756   1762     1   109.8000471 387.438400
   1757   1756   1758     1   107.5800459 329.699200
   1758   1756   1762     1   109.8000471 387.438400
   1760   1759   1768     1   109.7800468 425.094400
   1760   1759   1761     1   108.4600466 328.025600
   1761   1759   1768     1   109.7800468 425.094400
   1763   1762   3168     1   109.7800468 425.094400
   1763   1762   1764     1   108.4600466 328.025600
   1764   1762   3168     1   109.7800468 425.094400
   1766   1765   3182     1   109.7800468 425.094400
   1766   1765   1767     1   108.4600466 328.025600
   1767   1765   3182     1   109.7800468 425.094400
   1770   1771   1772     1   108.0100461 406.684800
   1770   1771   1773     1   108.0100461 406.684800
   1770   1774   1775     1   108.0100461 406.684800
   1770   1774   1776     1   108.0100461 406.684800
   1770   1777   1778     1   108.0100461 406.684800
   1770   1777   1779     1   108.0100461 406.684800
   1771   1770   1799     1   110.1100470 384.091200
   1771   1783   1784     1   109.8000471 387.438400
   1771   1783   1785     1   109.8000471 387.438400
   1772   1771   1783     1   110.5600475 386.601600
   1772   1771   1773     1   109.7500473 328.025600
   1773   1771   1783     1   110.5600475 386.601600
   1774   1770   1799     1   110.1100470 384.091200
   1774   1786   1787     1   109.8000471 387.438400
   1774   1786   1788     1   109.8000471 387.438400
   1775   1774   1786     1   110.5600475 386.601600
   1775   1774   1776     1   109.7500473 328.025600
   1776   1774   1786     1   110.5600475 386.601600
   1777   1770   1799     1   110.1100470 384.091200
   1777   1780   1781     1   109.8000471 387.438400
   1777   1780   1782     1   109.8000471 387.438400
   1778   1777   1780     1   110.5600475 386.601600
   1778   1777   1779     1   109.7500473 328.025600
   1779   1777   1780     1   110.5600475 386.601600
   1780   1789   1790     1   109.5600471 388.275200
   1780   1789   1791     1   109.5600471 388.275200
   1781   1780   1789     1   109.8000471 387.438400
   1781   1780   1782     1   107.5800459 329.699200
   1782   1780   1789     1   109.8000471 387.438400
   1783   1795   1796     1   109.5600471 388.275200
   1783   1795   1797     1   109.5600471 388.275200
   1784   1783   1795     1   109.8000471 387.438400
   1784   1783   1785     1   107.5800459 329.699200
   1785   1783   1795     1   109.8000471 387.438400
   1786   1792   1793     1   109.5600471 388.275200
   1786   1792   1794     1   109.5600471 388.275200
   1787   1786   1792     1   109.8000471 387.438400
   1787   1786   1788     1   107.5800459 329.699200
   1788   1786   1792     1   109.8000471 387.438400
   1790   1789   1798     1   109.7800468 425.094400
   1790   1789   1791     1   108.4600466 328.025600
   1791   1789   1798     1   109.7800468 425.094400
   1793   1792   3196     1   109.7800468 425.094400
   1793   1792   1794     1   108.4600466 328.025600
   1794   1792   3196     1   109.7800468 425.094400
   1796   1795   3210     1   109.7800468 425.094400
   1796   1795   1797     1   108.4600466 328.025600
   1797   1795   3210     1   109.7800468 425.094400
   1800   1801   1802     1   108.0100461 406.684800
   1800   1801   1803     1   108.0100461 406.684800
   1800   1804   1805     1   108.0100461 406.684800
   1800   1804   1806     1   108.0100461 406.684800
   1800   1807   1808     1   108.0100461 406.684800
   1800   1807   1809     1   108.0100461 406.684800
   1801   1800   1829     1   110.1100470 384.091200
   1801   1813   1814     1   109.8000471 387.438400
   1801   1813   1815     1   109.8000471 387.438400
   1802   1801   1813     1   110.5600475 386.601600
   1802   1801   1803     1   109.7500473 328.025600
   1803   1801   1813     1   110.5600475 386.601600
   1804   1800   1829     1   110.1100470 384.091200
   1804   1816   1817     1   109.8000471 387.438400
   1804   1816   1818     1   109.8000471 387.438400
   1805   1804   1816     1   110.5600475 386.601600
   1805   1804   1806     1   109.7500473 328.025600
   1806   1804   1816     1   110.5600475 386.601600
   1807   1800   1829     1   110.1100470 384.091200
   1807   1810   1811     1   109.8000471 387.438400
   1807   1810   1812     1   109.8000471 387.438400
   1808   1807   1810     1   110.5600475 386.601600
   1808   1807   1809     1   109.7500473 328.025600
   1809   1807   1810     1   110.5600475 386.601600
   1810   1819   1820     1   109.5600471 388.275200
   1810   1819   1821     1   109.5600471 388.275200
   1811   1810   1819     1   109.8000471 387.438400
   1811   1810   1812     1   107.5800459 329.699200
   1812   1810   1819     1   109.8000471 387.438400
   1813   1825   1826     1   109.5600471 388.275200
   1813   1825   1827     1   109.5600471 388.275200
   1814   1813   1825     1   109.8000471 387.438400
   1814   1813   1815     1   107.5800459 329.699200
   1815   1813   1825     1   109.8000471 387.438400
   1816   1822   1823     1   109.5600471 388.275200
   1816   1822   1824     1   109.5600471 388.275200
   1817   1816   1822     1   109.8000471 387.438400
   1817   1816   1818     1   107.5800459 329.699200
   1818   1816   1822     1   109.8000471 387.438400
   1820   1819   1828     1   109.7800468 425.094400
   1820   1819   1821     1   108.4600466 328.025600
   1821   1819   1828     1   109.7800468 425.094400
   1823   1822   3224     1   109.7800468 425.094400
   1823   1822   1824     1   108.4600466 328.025600
   1824   1822   3224     1   109.7800468 425.094400
   1826   1825   3238     1   109.7800468 425.094400
   1826   1825   1827     1   108.4600466 328.025600
   1827   1825   3238     1   109.7800468 425.094400
   1830   1831   1832     1   108.0100461 406.684800
   1830   1831   1833     1   108.0100461 406.684800
   1830   1834   1835     1   108.0100461 406.684800
   1830   1834   1836     1   108.0100461 406.684800
   1830   1837   1838     1   108.0100461 406.684800
   1830   1837   1839     1   108.0100461 406.684800
   1831   1830   1859     1   110.1100470 384.091200
   1831   1843   1844     1   109.8000471 387.438400
   1831   1843   1845     1   109.8000471 387.438400
   1832   1831   1843     1   110.5600475 386.601600
   1832   1831   1833     1   109.7500473 328.025600
   1833   1831   1843     1   110.5600475 386.601600
   1834   1830   1859     1   110.1100470 384.091200
   1834   1846   1847     1   109.8000471 387.438400
   1834   1846   1848     1   109.8000471 387.438400
   1835   1834   1846     1   110.5600475 386.601600
   1835   1834   1836     1   109.7500473 328.025600
   1836   1834   1846     1   110.5600475 386.601600
   1837   1830   1859     1   110.1100470 384.091200
   1837   1840   1841     1   109.8000471 387.438400
   1837   1840   1842     1   109.8000471 387.438400
   1838   1837   1840     1   110.5600475 386.601600
   1838   1837   1839     1   109.7500473 328.025600
   1839   1837   1840     1   110.5600475 386.601600
   1840   1849   1850     1   109.5600471 388.275200
   1840   1849   1851     1   109.5600471 388.275200
   1841   1840   1849     1   109.8000471 387.438400
   1841   1840   1842     1   107.5800459 329.699200
   1842   1840   1849     1   109.8000471 387.438400
   1843   1855   1856     1   109.5600471 388.275200
   1843   1855   1857     1   109.5600471 388.275200
   1844   1843   1855     1   109.8000471 387.438400
   1844   1843   1845     1   107.5800459 329.699200
   1845   1843   1855     1   109.8000471 387.438400
   1846   1852   1853     1   109.5600471 388.275200
   1846   1852   1854     1   109.5600471 388.275200
   1847   1846   1852     1   109.8000471 387.438400
   1847   1846   1848     1   107.5800459 329.699200
   1848   1846   1852     1   109.8000471 387.438400
   1850   1849   1858     1   109.7800468 425.094400
   1850   1849   1851     1   108.4600466 328.025600
   1851   1849   1858     1   109.7800468 425.094400
   1853   1852   3252     1   109.7800468 425.094400
   1853   1852   1854     1   108.4600466 328.025600
   1854   1852   3252     1   109.7800468 425.094400
   1856   1855   3266     1   109.7800468 425.094400
   1856   1855   1857     1   108.4600466 328.025600
   1857   1855   3266     1   109.7800468 425.094400
   1860   1861   1862     1   108.0100461 406.684800
   1860   1861   1863     1   108.0100461 406.684800
   1860   1864   1865     1   108.0100461 406.684800
   1860   1864   1866     1   108.0100461 406.684800
   1860   1867   1868     1   108.0100461 406.684800
   1860   1867   1869     1   108.0100461 406.684800
   1861   1860   1889     1   110.1100470 384.091200
   1861   1873   1874     1   109.8000471 387.438400
   1861   1873   1875     1   109.8000471 387.438400
   1862   1861   1873     1   110.5600475 386.601600
   1862   1861   1863     1   109.7500473 328.025600
   1863   1861   1873     1   110.5600475 386.601600
   1864   1860   1889     1   110.1100470 384.091200
   1864   1876   1877     1   109.8000471 387.438400
   1864   1876   1878     1   109.8000471 387.438400
   1865   1864   1876     1   110.5600475 386.601600
   1865   1864   1866     1   109.7500473 328.025600
   1866   1864   1876     1   110.5600475 386.601600
   1867   1860   1889     1   110.1100470 384.091200
   1867   1870   1871     1   109.8000471 387.438400
   1867   1870   1872     1   109.8000471 387.438400
   1868   1867   1870     1   110.5600475 386.601600
   1868   1867   1869     1   109.7500473 328.025600
   1869   1867   1870     1   110.5600475 386.601600
   1870   1879   1880     1   109.5600471 388.275200
   1870   1879   1881     1   109.5600471 388.275200
   1871   1870   1879     1   109.8000471 387.438400
   1871   1870   1872     1   107.5800459 329.699200
   1872   1870   1879     1   109.8000471 387.438400
   1873   1885   1886     1   109.5600471 388.275200
   1873   1885   1887     1   109.5600471 388.275200
   1874   1873   1885     1   109.8000471 387.438400
   1874   1873   1875     1   107.5800459 329.699200
   1875   1873   1885     1   109.8000471 387.438400
   1876   1882   1883     1   109.5600471 388.275200
   1876   1882   1884     1   109.5600471 388.275200
   1877   1876   1882     1   109.8000471 387.438400
   1877   1876   1878     1   107.5800459 329.699200
   1878   1876   1882     1   109.8000471 387.438400
   1880   1879   1888     1   109.7800468 425.094400
   1880   1879   1881     1   108.4600466 328.025600
   1881   1879   1888     1   109.7800468 425.094400
   1883   1882   3280     1   109.7800468 425.094400
   1883   1882   1884     1   108.4600466 328.025600
   1884   1882   3280     1   109.7800468 425.094400
   1886   1885   3294     1   109.7800468 425.094400
   1886   1885   1887     1   108.4600466 328.025600
   1887   1885   3294     1   109.7800468 425.094400
   1890   1891   1892     1   108.0100461 406.684800
   1890   1891   1893     1   108.0100461 406.684800
   1890   1894   1895     1   108.0100461 406.684800
   1890   1894   1896     1   108.0100461 406.684800
   1890   1897   1898     1   108.0100461 406.684800
   1890   1897   1899     1   108.0100461 406.684800
   1891   1890   1919     1   110.1100470 384.091200
   1891   1903   1904     1   109.8000471 387.438400
   1891   1903   1905     1   109.8000471 387.438400
   1892   1891   1903     1   110.5600475 386.601600
   1892   1891   1893     1   109.7500473 328.025600
   1893   1891   1903     1   110.5600475 386.601600
   1894   1890   1919     1   110.1100470 384.091200
   1894   1906   1907     1   109.8000471 387.438400
   1894   1906   1908     1   109.8000471 387.438400
   1895   1894   1906     1   110.5600475 386.601600
   1895   1894   1896     1   109.7500473 328.025600
   1896   1894   1906     1   110.5600475 386.601600
   1897   1890   1919     1   110.1100470 384.091200
   1897   1900   1901     1   109.8000471 387.438400
   1897   1900   1902     1   109.8000471 387.438400
   1898   1897   1900     1   110.5600475 386.601600
   1898   1897   1899     1   109.7500473 328.025600
   1899   1897   1900     1   110.5600475 386.601600
   1900   1909   1910     1   109.5600471 388.275200
   1900   1909   1911     1   109.5600471 388.275200
   1901   1900   1909     1   109.8000471 387.438400
   1901   1900   1902     1   107.5800459 329.699200
   1902   1900   1909     1   109.8000471 387.438400
   1903   1915   1916     1   109.5600471 388.275200
   1903   1915   1917     1   109.5600471 388.275200
   1904   1903   1915     1   109.8000471 387.438400
   1904   1903   1905     1   107.5800459 329.699200
   1905   1903   1915     1   109.8000471 387.438400
   1906   1912   1913     1   109.5600471 388.275200
   1906   1912   1914     1   109.5600471 388.275200
   1907   1906   1912     1   109.8000471 387.438400
   1907   1906   1908     1   107.5800459 329.699200
   1908   1906   1912     1   109.8000471 387.438400
   1910   1909   1918     1   109.7800468 425.094400
   1910   1909   1911     1   108.4600466 328.025600
   1911   1909   1918     1   109.7800468 425.094400
   1913   1912   3308     1   109.7800468 425.094400
   1913   1912   1914     1   108.4600466 328.025600
   1914   1912   3308     1   109.7800468 425.094400
   1916   1915   3322     1   109.7800468 425.094400
   1916   1915   1917     1   108.4600466 328.025600
   1917   1915   3322     1   109.7800468 425.094400
   1920   1921   1922     1   108.0100461 406.684800
   1920   1921   1923     1   108.0100461 406.684800
   1920   1924   1925     1   108.0100461 406.684800
   1920   1924   1926     1   108.0100461 406.684800
   1920   1927   1928     1   108.0100461 406.684800
   1920   1927   1929     1   108.0100461 406.684800
   1921   1920   1949     1   110.1100470 384.091200
   1921   1933   1934     1   109.8000471 387.438400
   1921   1933   1935     1   109.8000471 387.438400
   1922   1921   1933     1   110.5600475 386.601600
   1922   1921   1923     1   109.7500473 328.025600
   1923   1921   1933     1   110.5600475 386.601600
   1924   1920   1949     1   110.1100470 384.091200
   1924   1936   1937     1   109.8000471 387.438400
   1924   1936   1938     1   109.8000471 387.438400
   1925   1924   1936     1   110.5600475 386.601600
   1925   1924   1926     1   109.7500473 328.025600
   1926   1924   1936     1   110.5600475 386.601600
   1927   1920   1949     1   110.1100470 384.091200
   1927   1930   1931     1   109.8000471 387.438400
   1927   1930   1932     1   109.8000471 387.438400
   1928   1927   1930     1   110.5600475 386.601600
   1928   1927   1929     1   109.7500473 328.025600
   1929   1927   1930     1   110.5600475 386.601600
   1930   1939   1940     1   109.5600471 388.275200
   1930   1939   1941     1   109.5600471 388.275200
   1931   1930   1939     1   109.8000471 387.438400
   1931   1930   1932     1   107.5800459 329.699200
   1932   1930   1939     1   109.8000471 387.438400
   1933   1945   1946     1   109.5600471 388.275200
   1933   1945   1947     1   109.5600471 388.275200
   1934   1933   1945     1   109.8000471 387.438400
   1934   1933   1935     1   107.5800459 329.699200
   1935   1933   1945     1   109.8000471 387.438400
   1936   1942   1943     1   109.5600471 388.275200
   1936   1942   1944     1   109.5600471 388.275200
   1937   1936   1942     1   109.8000471 387.438400
   1937   1936   1938     1   107.5800459 329.699200
   1938   1936   1942     1   109.8000471 387.438400
   1940   1939   1948     1   109.7800468 425.094400
   1940   1939   1941     1   108.4600466 328.025600
   1941   1939   1948     1   109.7800468 425.094400
   1943   1942   3336     1   109.7800468 425.094400
   1943   1942   1944     1   108.4600466 328.025600
   1944   1942   3336     1   109.7800468 425.094400
   1946   1945   3350     1   109.7800468 425.094400
   1946   1945   1947     1   108.4600466 328.025600
   1947   1945   3350     1   109.7800468 425.094400
   1950   1951   1952     1   108.0100461 406.684800
   1950   1951   1953     1   108.0100461 406.684800
   1950   1954   1955     1   108.0100461 406.684800
   1950   1954   1956     1   108.0100461 406.684800
   1950   1957   1958     1   108.0100461 406.684800
   1950   1957   1959     1   108.0100461 406.684800
   1951   1950   1979     1   110.1100470 384.091200
   1951   1963   1964     1   109.8000471 387.438400
   1951   1963   1965     1   109.8000471 387.438400
   1952   1951   1963     1   110.5600475 386.601600
   1952   1951   1953     1   109.7500473 328.025600
   1953   1951   1963     1   110.5600475 386.601600
   1954   1950   1979     1   110.1100470 384.091200
   1954   1966   1967     1   109.8000471 387.438400
   1954   1966   1968     1   109.8000471 387.438400
   1955   1954   1966     1   110.5600475 386.601600
   1955   1954   1956     1   109.7500473 328.025600
   1956   1954   1966     1   110.5600475 386.601600
   1957   1950   1979     1   110.1100470 384.091200
   1957   1960   1961     1   109.8000471 387.438400
   1957   1960   1962     1   109.8000471 387.438400
   1958   1957   1960     1   110.5600475 386.601600
   1958   1957   1959     1   109.7500473 328.025600
   1959   1957   1960     1   110.5600475 386.601600
   1960   1969   1970     1   109.5600471 388.275200
   1960   1969   1971     1   109.5600471 388.275200
   1961   1960   1969     1   109.8000471 387.438400
   1961   1960   1962     1   107.5800459 329.699200
   1962   1960   1969     1   109.8000471 387.438400
   1963   1975   1976     1   109.5600471 388.275200
   1963   1975   1977     1   109.5600471 388.275200
   1964   1963   1975     1   109.8000471 387.438400
   1964   1963   1965     1   107.5800459 329.699200
   1965   1963   1975     1   109.8000471 387.438400
   1966   1972   1973     1   109.5600471 388.275200
   1966   1972   1974     1   109.5600471 388.275200
   1967   1966   1972     1   109.8000471 387.438400
   1967   1966   1968     1   107.5800459 329.699200
   1968   1966   1972     1   109.8000471 387.438400
   1970   1969   1978     1   109.7800468 425.094400
   1970   1969   1971     1   108.4600466 328.025600
   1971   1969   1978     1   109.7800468 425.094400
   1973   1972   3364     1   109.7800468 425.094400
   1973   1972   1974     1   108.4600466 328.025600
   1974   1972   3364     1   109.7800468 425.094400
   1976   1975   3378     1   109.7800468 425.094400
   1976   1975   1977     1   108.4600466 328.025600
   1977   1975   3378     1   109.7800468 425.094400
   1980   1981   1982     1   108.0100461 406.684800
   1980   1981   1983     1   108.0100461 406.684800
   1980   1984   1985     1   108.0100461 406.684800
   1980   1984   1986     1   108.0100461 406.684800
   1980   1987   1988     1   108.0100461 406.684800
   1980   1987   1989     1   108.0100461 406.684800
   1981   1980   2009     1   110.1100470 384.091200
   1981   1993   1994     1   109.8000471 387.438400
   1981   1993   1995     1   109.8000471 387.438400
   1982   1981   1993     1   110.5600475 386.601600
   1982   1981   1983     1   109.7500473 328.025600
   1983   1981   1993     1   110.5600475 386.601600
   1984   1980   2009     1   110.1100470 384.091200
   1984   1996   1997     1   109.8000471 387.438400
   1984   1996   1998     1   109.8000471 387.438400
   1985   1984   1996     1   110.5600475 386.601600
   1985   1984   1986     1   109.7500473 328.025600
   1986   1984   1996     1   110.5600475 386.601600
   1987   1980   2009     1   110.1100470 384.091200
   1987   1990   1991     1   109.8000471 387.438400
   1987   1990   1992     1   109.8000471 387.438400
   1988   1987   1990     1   110.5600475 386.601600
   1988   1987   1989     1   109.7500473 328.025600
   1989   1987   1990     1   110.5600475 386.601600
   1990   1999   2000     1   109.5600471 388.275200
   1990   1999   2001     1   109.5600471 388.275200
   1991   1990   1999     1   109.8000471 387.438400
   1991   1990   1992     1   107.5800459 329.699200
   1992   1990   1999     1   109.8000471 387.438400
   1993   2005   2006     1   109.5600471 388.275200
   1993   2005   2007     1   109.5600471 388.275200
   1994   1993   2005     1   109.8000471 387.438400
   1994   1993   1995     1   107.5800459 329.699200
   1995   1993   2005     1   109.8000471 387.438400
   1996   2002   2003     1   109.5600471 388.275200
   1996   2002   2004     1   109.5600471 388.275200
   1997   1996   2002     1   109.8000471 387.438400
   1997   1996   1998     1   107.5800459 329.699200
   1998   1996   2002     1   109.8000471 387.438400
   2000   1999   2008     1   109.7800468 425.094400
   2000   1999   2001     1   108.4600466 328.025600
   2001   1999   2008     1   109.7800468 425.094400
   2003   2002   3392     1   109.7800468 425.094400
   2003   2002   2004     1   108.4600466 328.025600
   2004   2002   3392     1   109.7800468 425.094400
   2006   2005   3406     1   109.7800468 425.094400
   2006   2005   2007     1   108.4600466 328.025600
   2007   2005   3406     1   109.7800468 425.094400
   2010   2011   2012     1   108.0100461 406.684800
   2010   2011   2013     1   108.0100461 406.684800
   2010   2014   2015     1   108.0100461 406.684800
   2010   2014   2016     1   108.0100461 406.684800
   2010   2017   2018     1   108.0100461 406.684800
   2010   2017   2019     1   108.0100461 406.684800
   2011   2010   2039     1   110.1100470 384.091200
   2011   2023   2024     1   109.8000471 387.438400
   2011   2023   2025     1   109.8000471 387.438400
   2012   2011   2023     1   110.5600475 386.601600
   2012   2011   2013     1   109.7500473 328.025600
   2013   2011   2023     1   110.5600475 386.601600
   2014   2010   2039     1   110.1100470 384.091200
   2014   2026   2027     1   109.8000471 387.438400
   2014   2026   2028     1   109.8000471 387.438400
   2015   2014   2026     1   110.5600475 386.601600
   2015   2014   2016     1   109.7500473 328.025600
   2016   2014   2026     1   110.5600475 386.601600
   2017   2010   2039     1   110.1100470 384.091200
   2017   2020   2021     1   109.8000471 387.438400
   2017   2020   2022     1   109.8000471 387.438400
   2018   2017   2020     1   110.5600475 386.601600
   2018   2017   2019     1   109.7500473 328.025600
   2019   2017   2020     1   110.5600475 386.601600
   2020   2029   2030     1   109.5600471 388.275200
   2020   2029   2031     1   109.5600471 388.275200
   2021   2020   2029     1   109.8000471 387.438400
   2021   2020   2022     1   107.5800459 329.699200
   2022   2020   2029     1   109.8000471 387.438400
   2023   2035   2036     1   109.5600471 388.275200
   2023   2035   2037     1   109.5600471 388.275200
   2024   2023   2035     1   109.8000471 387.438400
   2024   2023   2025     1   107.5800459 329.699200
   2025   2023   2035     1   109.8000471 387.438400
   2026   2032   2033     1   109.5600471 388.275200
   2026   2032   2034     1   109.5600471 388.275200
   2027   2026   2032     1   109.8000471 387.438400
   2027   2026   2028     1   107.5800459 329.699200
   2028   2026   2032     1   109.8000471 387.438400
   2030   2029   2038     1   109.7800468 425.094400
   2030   2029   2031     1   108.4600466 328.025600
   2031   2029   2038     1   109.7800468 425.094400
   2033   2032   3420     1   109.7800468 425.094400
   2033   2032   2034     1   108.4600466 328.025600
   2034   2032   3420     1   109.7800468 425.094400
   2036   2035   3434     1   109.7800468 425.094400
   2036   2035   2037     1   108.4600466 328.025600
   2037   2035   3434     1   109.7800468 425.094400
   2040   2041   2042     1   108.0100461 406.684800
   2040   2041   2043     1   108.0100461 406.684800
   2040   2044   2045     1   108.0100461 406.684800
   2040   2044   2046     1   108.0100461 406.684800
   2040   2047   2048     1   108.0100461 406.684800
   2040   2047   2049     1   108.0100461 406.684800
   2041   2040   2069     1   110.1100470 384.091200
   2041   2053   2054     1   109.8000471 387.438400
   2041   2053   2055     1   109.8000471 387.438400
   2042   2041   2053     1   110.5600475 386.601600
   2042   2041   2043     1   109.7500473 328.025600
   2043   2041   2053     1   110.5600475 386.601600
   2044   2040   2069     1   110.1100470 384.091200
   2044   2056   2057     1   109.8000471 387.438400
   2044   2056   2058     1   109.8000471 387.438400
   2045   2044   2056     1   110.5600475 386.601600
   2045   2044   2046     1   109.7500473 328.025600
   2046   2044   2056     1   110.5600475 386.601600
   2047   2040   2069     1   110.1100470 384.091200
   2047   2050   2051     1   109.8000471 387.438400
   2047   2050   2052     1   109.8000471 387.438400
   2048   2047   2050     1   110.5600475 386.601600
   2048   2047   2049     1   109.7500473 328.025600
   2049   2047   2050     1   110.5600475 386.601600
   2050   2059   2060     1   109.5600471 388.275200
   2050   2059   2061     1   109.5600471 388.275200
   2051   2050   2059     1   109.8000471 387.438400
   2051   2050   2052     1   107.5800459 329.699200
   2052   2050   2059     1   109.8000471 387.438400
   2053   2065   2066     1   109.5600471 388.275200
   2053   2065   2067     1   109.5600471 388.275200
   2054   2053   2065     1   109.8000471 387.438400
   2054   2053   2055     1   107.5800459 329.699200
   2055   2053   2065     1   109.8000471 387.438400
   2056   2062   2063     1   109.5600471 388.275200
   2056   2062   2064     1   109.5600471 388.275200
   2057   2056   2062     1   109.8000471 387.438400
   2057   2056   2058     1   107.5800459 329.699200
   2058   2056   2062     1   109.8000471 387.438400
   2060   2059   2068     1   109.7800468 425.094400
   2060   2059   2061     1   108.4600466 328.025600
   2061   2059   2068     1   109.7800468 425.094400
   2063   2062   3448     1   109.7800468 425.094400
   2063   2062   2064     1   108.4600466 328.025600
   2064   2062   3448     1   109.7800468 425.094400
   2066   2065   3462     1   109.7800468 425.094400
   2066   2065   2067     1   108.4600466 328.025600
   2067   2065   3462     1   109.7800468 425.094400
   2070   2071   2072     1   108.0100461 406.684800
   2070   2071   2073     1   108.0100461 406.684800
   2070   2074   2075     1   108.0100461 406.684800
   2070   2074   2076     1   108.0100461 406.684800
   2070   2077   2078     1   108.0100461 406.684800
   2070   2077   2079     1   108.0100461 406.684800
   2071   2070   2099     1   110.1100470 384.091200
   2071   2083   2084     1   109.8000471 387.438400
   2071   2083   2085     1   109.8000471 387.438400
   2072   2071   2083     1   110.5600475 386.601600
   2072   2071   2073     1   109.7500473 328.025600
   2073   2071   2083     1   110.5600475 386.601600
   2074   2070   2099     1   110.1100470 384.091200
   2074   2086   2087     1   109.8000471 387.438400
   2074   2086   2088     1   109.8000471 387.438400
   2075   2074   2086     1   110.5600475 386.601600
   2075   2074   2076     1   109.7500473 328.025600
   2076   2074   2086     1   110.5600475 386.601600
   2077   2070   2099     1   110.1100470 384.091200
   2077   2080   2081     1   109.8000471 387.438400
   2077   2080   2082     1   109.8000471 387.438400
   2078   2077   2080     1   110.5600475 386.601600
   2078   2077   2079     1   109.7500473 328.025600
   2079   2077   2080     1   110.5600475 386.601600
   2080   2089   2090     1   109.5600471 388.275200
   2080   2089   2091     1   109.5600471 388.275200
   2081   2080   2089     1   109.8000471 387.438400
   2081   2080   2082     1   107.5800459 329.699200
   2082   2080   2089     1   109.8000471 387.438400
   2083   2095   2096     1   109.5600471 388.275200
   2083   2095   2097     1   109.5600471 388.275200
   2084   2083   2095     1   109.8000471 387.438400
   2084   2083   2085     1   107.5800459 329.699200
   2085   2083   2095     1   109.8000471 387.438400
   2086   2092   2093     1   109.5600471 388.275200
   2086   2092   2094     1   109.5600471 388.275200
   2087   2086   2092     1   109.8000471 387.438400
   2087   2086   2088     1   107.5800459 329.699200
   2088   2086   2092     1   109.8000471 387.438400
   2090   2089   2098     1   109.7800468 425.094400
   2090   2089   2091     1   108.4600466 328.025600
   2091   2089   2098     1   109.7800468 425.094400
   2093   2092   3476     1   109.7800468 425.094400
   2093   2092   2094     1   108.4600466 328.025600
   2094   2092   3476     1   109.7800468 425.094400
   2096   2095   3490     1   109.7800468 425.094400
   2096   2095   2097     1   108.4600466 328.025600
   2097   2095   3490     1   109.7800468 425.094400
   2100   2101   2102     1   108.0100461 406.684800
   2100   2101   2103     1   108.0100461 406.684800
   2100   2104   2105     1   108.0100461 406.684800
   2100   2104   2106     1   108.0100461 406.684800
   2100   2107   2108     1   108.0100461 406.684800
   2100   2107   2109     1   108.0100461 406.684800
   2101   2100   2129     1   110.1100470 384.091200
   2101   2113   2114     1   109.8000471 387.438400
   2101   2113   2115     1   109.8000471 387.438400
   2102   2101   2113     1   110.5600475 386.601600
   2102   2101   2103     1   109.7500473 328.025600
   2103   2101   2113     1   110.5600475 386.601600
   2104   2100   2129     1   110.1100470 384.091200
   2104   2116   2117     1   109.8000471 387.438400
   2104   2116   2118     1   109.8000471 387.438400
   2105   2104   2116     1   110.5600475 386.601600
   2105   2104   2106     1   109.7500473 328.025600
   2106   2104   2116     1   110.5600475 386.601600
   2107   2100   2129     1   110.1100470 384.091200
   2107   2110   2111     1   109.8000471 387.438400
   2107   2110   2112     1   109.8000471 387.438400
   2108   2107   2110     1   110.5600475 386.601600
   2108   2107   2109     1   109.7500473 328.025600
   2109   2107   2110     1   110.5600475 386.601600
   2110   2119   2120     1   109.5600471 388.275200
   2110   2119   2121     1   109.5600471 388.275200
   2111   2110   2119     1   109.8000471 387.438400
   2111   2110   2112     1   107.5800459 329.699200
   2112   2110   2119     1   109.8000471 387.438400
   2113   2125   2126     1   109.5600471 388.275200
   2113   2125   2127     1   109.5600471 388.275200
   2114   2113   2125     1   109.8000471 387.438400
   2114   2113   2115     1   107.5800459 329.699200
   2115   2113   2125     1   109.8000471 387.438400
   2116   2122   2123     1   109.5600471 388.275200
   2116   2122   2124     1   109.5600471 388.275200
   2117   2116   2122     1   109.8000471 387.438400
   2117   2116   2118     1   107.5800459 329.699200
   2118   2116   2122     1   109.8000471 387.438400
   2120   2119   2128     1   109.7800468 425.094400
   2120   2119   2121     1   108.4600466 328.025600
   2121   2119   2128     1   109.7800468 425.094400
   2123   2122   3504     1   109.7800468 425.094400
   2123   2122   2124     1   108.4600466 328.025600
   2124   2122   3504     1   109.7800468 425.094400
   2126   2125   3518     1   109.7800468 425.094400
   2126   2125   2127     1   108.4600466 328.025600
   2127   2125   3518     1   109.7800468 425.094400
   2130   2131   2132     1   108.0100461 406.684800
   2130   2131   2133     1   108.0100461 406.684800
   2130   2134   2135     1   108.0100461 406.684800
   2130   2134   2136     1   108.0100461 406.684800
   2130   2137   2138     1   108.0100461 406.684800
   2130   2137   2139     1   108.0100461 406.684800
   2131   2130   2159     1   110.1100470 384.091200
   2131   2143   2144     1   109.8000471 387.438400
   2131   2143   2145     1   109.8000471 387.438400
   2132   2131   2143     1   110.5600475 386.601600
   2132   2131   2133     1   109.7500473 328.025600
   2133   2131   2143     1   110.5600475 386.601600
   2134   2130   2159     1   110.1100470 384.091200
   2134   2146   2147     1   109.8000471 387.438400
   2134   2146   2148     1   109.8000471 387.438400
   2135   2134   2146     1   110.5600475 386.601600
   2135   2134   2136     1   109.7500473 328.025600
   2136   2134   2146     1   110.5600475 386.601600
   2137   2130   2159     1   110.1100470 384.091200
   2137   2140   2141     1   109.8000471 387.438400
   2137   2140   2142     1   109.8000471 387.438400
   2138   2137   2140     1   110.5600475 386.601600
   2138   2137   2139     1   109.7500473 328.025600
   2139   2137   2140     1   110.5600475 386.601600
   2140   2149   2150     1   109.5600471 388.275200
   2140   2149   2151     1   109.5600471 388.275200
   2141   2140   2149     1   109.8000471 387.438400
   2141   2140   2142     1   107.5800459 329.699200
   2142   2140   2149     1   109.8000471 387.438400
   2143   2155   2156     1   109.5600471 388.275200
   2143   2155   2157     1   109.5600471 388.275200
   2144   2143   2155     1   109.8000471 387.438400
   2144   2143   2145     1   107.5800459 329.699200
   2145   2143   2155     1   109.8000471 387.438400
   2146   2152   2153     1   109.5600471 388.275200
   2146   2152   2154     1   109.5600471 388.275200
   2147   2146   2152     1   109.8000471 387.438400
   2147   2146   2148     1   107.5800459 329.699200
   2148   2146   2152     1   109.8000471 387.438400
   2150   2149   2158     1   109.7800468 425.094400
   2150   2149   2151     1   108.4600466 328.025600
   2151   2149   2158     1   109.7800468 425.094400
   2153   2152   3532     1   109.7800468 425.094400
   2153   2152   2154     1   108.4600466 328.025600
   2154   2152   3532     1   109.7800468 425.094400
   2156   2155   3546     1   109.7800468 425.094400
   2156   2155   2157     1   108.4600466 328.025600
   2157   2155   3546     1   109.7800468 425.094400
   2160   2161   2162     1   108.0100461 406.684800
   2160   2161   2163     1   108.0100461 406.684800
   2160   2164   2165     1   108.0100461 406.684800
   2160   2164   2166     1   108.0100461 406.684800
   2160   2167   2168     1   108.0100461 406.684800
   2160   2167   2169     1   108.0100461 406.684800
   2161   2160   2189     1   110.1100470 384.091200
   2161   2173   2174     1   109.8000471 387.438400
   2161   2173   2175     1   109.8000471 387.438400
   2162   2161   2173     1   110.5600475 386.601600
   2162   2161   2163     1   109.7500473 328.025600
   2163   2161   2173     1   110.5600475 386.601600
   2164   2160   2189     1   110.1100470 384.091200
   2164   2176   2177     1   109.8000471 387.438400
   2164   2176   2178     1   109.8000471 387.438400
   2165   2164   2176     1   110.5600475 386.601600
   2165   2164   2166     1   109.7500473 328.025600
   2166   2164   2176     1   110.5600475 386.601600
   2167   2160   2189     1   110.1100470 384.091200
   2167   2170   2171     1   109.8000471 387.438400
   2167   2170   2172     1   109.8000471 387.438400
   2168   2167   2170     1   110.5600475 386.601600
   2168   2167   2169     1   109.7500473 328.025600
   2169   2167   2170     1   110.5600475 386.601600
   2170   2179   2180     1   109.5600471 388.275200
   2170   2179   2181     1   109.5600471 388.275200
   2171   2170   2179     1   109.8000471 387.438400
   2171   2170   2172     1   107.5800459 329.699200
   2172   2170   2179     1   109.8000471 387.438400
   2173   2185   2186     1   109.5600471 388.275200
   2173   2185   2187     1   109.5600471 388.275200
   2174   2173   2185     1   109.8000471 387.438400
   2174   2173   2175     1   107.5800459 329.699200
   2175   2173   2185     1   109.8000471 387.438400
   2176   2182   2183     1   109.5600471 388.275200
   2176   2182   2184     1   109.5600471 388.275200
   2177   2176   2182     1   109.8000471 387.438400
   2177   2176   2178     1   107.5800459 329.699200
   2178   2176   2182     1   109.8000471 387.438400
   2180   2179   2188     1   109.7800468 425.094400
   2180   2179   2181     1   108.4600466 328.025600
   2181   2179   2188     1   109.7800468 425.094400
   2183   2182   3560     1   109.7800468 425.094400
   2183   2182   2184     1   108.4600466 328.025600
   2184   2182   3560     1   109.7800468 425.094400
   2186   2185   3574     1   109.7800468 425.094400
   2186   2185   2187     1   108.4600466 328.025600
   2187   2185   3574     1   109.7800468 425.094400
   2190   2191   2192     1   108.0100461 406.684800
   2190   2191   2193     1   108.0100461 406.684800
   2190   2194   2195     1   108.0100461 406.684800
   2190   2194   2196     1   108.0100461 406.684800
   2190   2197   2198     1   108.0100461 406.684800
   2190   2197   2199     1   108.0100461 406.684800
   2191   2190   2219     1   110.1100470 384.091200
   2191   2203   2204     1   109.8000471 387.438400
   2191   2203   2205     1   109.8000471 387.438400
   2192   2191   2203     1   110.5600475 386.601600
   2192   2191   2193     1   109.7500473 328.025600
   2193   2191   2203     1   110.5600475 386.601600
   2194   2190   2219     1   110.1100470 384.091200
   2194   2206   2207     1   109.8000471 387.438400
   2194   2206   2208     1   109.8000471 387.438400
   2195   2194   2206     1   110.5600475 386.601600
   2195   2194   2196     1   109.7500473 328.025600
   2196   2194   2206     1   110.5600475 386.601600
   2197   2190   2219     1   110.1100470 384.091200
   2197   2200   2201     1   109.8000471 387.438400
   2197   2200   2202     1   109.8000471 387.438400
   2198   2197   2200     1   110.5600475 386.601600
   2198   2197   2199     1   109.7500473 328.025600
   2199   2197   2200     1   110.5600475 386.601600
   2200   2209   2210     1   109.5600471 388.275200
   2200   2209   2211     1   109.5600471 388.275200
   2201   2200   2209     1   109.8000471 387.438400
   2201   2200   2202     1   107.5800459 329.699200
   2202   2200   2209     1   109.8000471 387.438400
   2203   2215   2216     1   109.5600471 388.275200
   2203   2215   2217     1   109.5600471 388.275200
   2204   2203   2215     1   109.8000471 387.438400
   2204   2203   2205     1   107.5800459 329.699200
   2205   2203   2215     1   109.8000471 387.438400
   2206   2212   2213     1   109.5600471 388.275200
   2206   2212   2214     1   109.5600471 388.275200
   2207   2206   2212     1   109.8000471 387.438400
   2207   2206   2208     1   107.5800459 329.699200
   2208   2206   2212     1   109.8000471 387.438400
   2210   2209   2218     1   109.7800468 425.094400
   2210   2209   2211     1   108.4600466 328.025600
   2211   2209   2218     1   109.7800468 425.094400
   2213   2212   3588     1   109.7800468 425.094400
   2213   2212   2214     1   108.4600466 328.025600
   2214   2212   3588     1   109.7800468 425.094400
   2216   2215   3602     1   109.7800468 425.094400
   2216   2215   2217     1   108.4600466 328.025600
   2217   2215   3602     1   109.7800468 425.094400
   2220   2221   2222     1   108.0100461 406.684800
   2220   2221   2223     1   108.0100461 406.684800
   2220   2224   2225     1   108.0100461 406.684800
   2220   2224   2226     1   108.0100461 406.684800
   2220   2227   2228     1   108.0100461 406.684800
   2220   2227   2229     1   108.0100461 406.684800
   2221   2220   2249     1   110.1100470 384.091200
   2221   2233   2234     1   109.8000471 387.438400
   2221   2233   2235     1   109.8000471 387.438400
   2222   2221   2233     1   110.5600475 386.601600
   2222   2221   2223     1   109.7500473 328.025600
   2223   2221   2233     1   110.5600475 386.601600
   2224   2220   2249     1   110.1100470 384.091200
   2224   2236   2237     1   109.8000471 387.438400
   2224   2236   2238     1   109.8000471 387.438400
   2225   2224   2236     1   110.5600475 386.601600
   2225   2224   2226     1   109.7500473 328.025600
   2226   2224   2236     1   110.5600475 386.601600
   2227   2220   2249     1   110.1100470 384.091200
   2227   2230   2231     1   109.8000471 387.438400
   2227   2230   2232     1   109.8000471 387.438400
   2228   2227   2230     1   110.5600475 386.601600
   2228   2227   2229     1   109.7500473 328.025600
   2229   2227   2230     1   110.5600475 386.601600
   2230   2239   2240     1   109.5600471 388.275200
   2230   2239   2241     1   109.5600471 388.275200
   2231   2230   2239     1   109.8000471 387.438400
   2231   2230   2232     1   107.5800459 329.699200
   2232   2230   2239     1   109.8000471 387.438400
   2233   2245   2246     1   109.5600471 388.275200
   2233   2245   2247     1   109.5600471 388.275200
   2234   2233   2245     1   109.8000471 387.438400
   2234   2233   2235     1   107.5800459 329.699200
   2235   2233   2245     1   109.8000471 387.438400
   2236   2242   2243     1   109.5600471 388.275200
   2236   2242   2244     1   109.5600471 388.275200
   2237   2236   2242     1   109.8000471 387.438400
   2237   2236   2238     1   107.5800459 329.699200
   2238   2236   2242     1   109.8000471 387.438400
   2240   2239   2248     1   109.7800468 425.094400
   2240   2239   2241     1   108.4600466 328.025600
   2241   2239   2248     1   109.7800468 425.094400
   2243   2242   3616     1   109.7800468 425.094400
   2243   2242   2244     1   108.4600466 328.025600
   2244   2242   3616     1   109.7800468 425.094400
   2246   2245   3630     1   109.7800468 425.094400
   2246   2245   2247     1   108.4600466 328.025600
   2247   2245   3630     1   109.7800468 425.094400
   2250   2251   2252     1   108.0100461 406.684800
   2250   2251   2253     1   108.0100461 406.684800
   2250   2254   2255     1   108.0100461 406.684800
   2250   2254   2256     1   108.0100461 406.684800
   2250   2257   2258     1   108.0100461 406.684800
   2250   2257   2259     1   108.0100461 406.684800
   2251   2250   2279     1   110.1100470 384.091200
   2251   2263   2264     1   109.8000471 387.438400
   2251   2263   2265     1   109.8000471 387.438400
   2252   2251   2263     1   110.5600475 386.601600
   2252   2251   2253     1   109.7500473 328.025600
   2253   2251   2263     1   110.5600475 386.601600
   2254   2250   2279     1   110.1100470 384.091200
   2254   2266   2267     1   109.8000471 387.438400
   2254   2266   2268     1   109.8000471 387.438400
   2255   2254   2266     1   110.5600475 386.601600
   2255   2254   2256     1   109.7500473 328.025600
   2256   2254   2266     1   110.5600475 386.601600
   2257   2250   2279     1   110.1100470 384.091200
   2257   2260   2261     1   109.8000471 387.438400
   2257   2260   2262     1   109.8000471 387.438400
   2258   2257   2260     1   110.5600475 386.601600
   2258   2257   2259     1   109.7500473 328.025600
   2259   2257   2260     1   110.5600475 386.601600
   2260   2269   2270     1   109.5600471 388.275200
   2260   2269   2271     1   109.5600471 388.275200
   2261   2260   2269     1   109.8000471 387.438400
   2261   2260   2262     1   107.5800459 329.699200
   2262   2260   2269     1   109.8000471 387.438400
   2263   2275   2276     1   109.5600471 388.275200
   2263   2275   2277     1   109.5600471 388.275200
   2264   2263   2275     1   109.8000471 387.438400
   2264   2263   2265     1   107.5800459 329.699200
   2265   2263   2275     1   109.8000471 387.438400
   2266   2272   2273     1   109.5600471 388.275200
   2266   2272   2274     1   109.5600471 388.275200
   2267   2266   2272     1   109.8000471 387.438400
   2267   2266   2268     1   107.5800459 329.699200
   2268   2266   2272     1   109.8000471 387.438400
   2270   2269   2278     1   109.7800468 425.094400
   2270   2269   2271     1   108.4600466 328.025600
   2271   2269   2278     1   109.7800468 425.094400
   2273   2272   3644     1   109.7800468 425.094400
   2273   2272   2274     1   108.4600466 328.025600
   2274   2272   3644     1   109.7800468 425.094400
   2276   2275   3658     1   109.7800468 425.094400
   2276   2275   2277     1   108.4600466 328.025600
   2277   2275   3658     1   109.7800468 425.094400
   2280   2281   2282     1   108.0100461 406.684800
   2280   2281   2283     1   108.0100461 406.684800
   2280   2284   2285     1   108.0100461 406.684800
   2280   2284   2286     1   108.0100461 406.684800
   2280   2287   2288     1   108.0100461 406.684800
   2280   2287   2289     1   108.0100461 406.684800
   2281   2280   2309     1   110.1100470 384.091200
   2281   2293   2294     1   109.8000471 387.438400
   2281   2293   2295     1   109.8000471 387.438400
   2282   2281   2293     1   110.5600475 386.601600
   2282   2281   2283     1   109.7500473 328.025600
   2283   2281   2293     1   110.5600475 386.601600
   2284   2280   2309     1   110.1100470 384.091200
   2284   2296   2297     1   109.8000471 387.438400
   2284   2296   2298     1   109.8000471 387.438400
   2285   2284   2296     1   110.5600475 386.601600
   2285   2284   2286     1   109.7500473 328.025600
   2286   2284   2296     1   110.5600475 386.601600
   2287   2280   2309     1   110.1100470 384.091200
   2287   2290   2291     1   109.8000471 387.438400
   2287   2290   2292     1   109.8000471 387.438400
   2288   2287   2290     1   110.5600475 386.601600
   2288   2287   2289     1   109.7500473 328.025600
   2289   2287   2290     1   110.5600475 386.601600
   2290   2299   2300     1   109.5600471 388.275200
   2290   2299   2301     1   109.5600471 388.275200
   2291   2290   2299     1   109.8000471 387.438400
   2291   2290   2292     1   107.5800459 329.699200
   2292   2290   2299     1   109.8000471 387.438400
   2293   2305   2306     1   109.5600471 388.275200
   2293   2305   2307     1   109.5600471 388.275200
   2294   2293   2305     1   109.8000471 387.438400
   2294   2293   2295     1   107.5800459 329.699200
   2295   2293   2305     1   109.8000471 387.438400
   2296   2302   2303     1   109.5600471 388.275200
   2296   2302   2304     1   109.5600471 388.275200
   2297   2296   2302     1   109.8000471 387.438400
   2297   2296   2298     1   107.5800459 329.699200
   2298   2296   2302     1   109.8000471 387.438400
   2300   2299   2308     1   109.7800468 425.094400
   2300   2299   2301     1   108.4600466 328.025600
   2301   2299   2308     1   109.7800468 425.094400
   2303   2302   3672     1   109.7800468 425.094400
   2303   2302   2304     1   108.4600466 328.025600
   2304   2302   3672     1   109.7800468 425.094400
   2306   2305   3686     1   109.7800468 425.094400
   2306   2305   2307     1   108.4600466 328.025600
   2307   2305   3686     1   109.7800468 425.094400
   2310   2311   2312     1   108.0100461 406.684800
   2310   2311   2313     1   108.0100461 406.684800
   2310   2314   2315     1   108.0100461 406.684800
   2310   2314   2316     1   108.0100461 406.684800
   2310   2317   2318     1   108.0100461 406.684800
   2310   2317   2319     1   108.0100461 406.684800
   2311   2310   2339     1   110.1100470 384.091200
   2311   2323   2324     1   109.8000471 387.438400
   2311   2323   2325     1   109.8000471 387.438400
   2312   2311   2323     1   110.5600475 386.601600
   2312   2311   2313     1   109.7500473 328.025600
   2313   2311   2323     1   110.5600475 386.601600
   2314   2310   2339     1   110.1100470 384.091200
   2314   2326   2327     1   109.8000471 387.438400
   2314   2326   2328     1   109.8000471 387.438400
   2315   2314   2326     1   110.5600475 386.601600
   2315   2314   2316     1   109.7500473 328.025600
   2316   2314   2326     1   110.5600475 386.601600
   2317   2310   2339     1   110.1100470 384.091200
   2317   2320   2321     1   109.8000471 387.438400
   2317   2320   2322     1   109.8000471 387.438400
   2318   2317   2320     1   110.5600475 386.601600
   2318   2317   2319     1   109.7500473 328.025600
   2319   2317   2320     1   110.5600475 386.601600
   2320   2329   2330     1   109.5600471 388.275200
   2320   2329   2331     1   109.5600471 388.275200
   2321   2320   2329     1   109.8000471 387.438400
   2321   2320   2322     1   107.5800459 329.699200
   2322   2320   2329     1   109.8000471 387.438400
   2323   2335   2336     1   109.5600471 388.275200
   2323   2335   2337     1   109.5600471 388.275200
   2324   2323   2335     1   109.8000471 387.438400
   2324   2323   2325     1   107.5800459 329.699200
   2325   2323   2335     1   109.8000471 387.438400
   2326   2332   2333     1   109.5600471 388.275200
   2326   2332   2334     1   109.5600471 388.275200
   2327   2326   2332     1   109.8000471 387.438400
   2327   2326   2328     1   107.5800459 329.699200
   2328   2326   2332     1   109.8000471 387.438400
   2330   2329   2338     1   109.7800468 425.094400
   2330   2329   2331     1   108.4600466 328.025600
   2331   2329   2338     1   109.7800468 425.094400
   2333   2332   3700     1   109.7800468 425.094400
   2333   2332   2334     1   108.4600466 328.025600
   2334   2332   3700     1   109.7800468 425.094400
   2336   2335   3714     1   109.7800468 425.094400
   2336   2335   2337     1   108.4600466 328.025600
   2337   2335   3714     1   109.7800468 425.094400
   2340   2341   2342     1   108.0100461 406.684800
   2340   2341   2343     1   108.0100461 406.684800
   2340   2344   2345     1   108.0100461 406.684800
   2340   2344   2346     1   108.0100461 406.684800
   2340   2347   2348     1   108.0100461 406.684800
   2340   2347   2349     1   108.0100461 406.684800
   2341   2340   2369     1   110.1100470 384.091200
   2341   2353   2354     1   109.8000471 387.438400
   2341   2353   2355     1   109.8000471 387.438400
   2342   2341   2353     1   110.5600475 386.601600
   2342   2341   2343     1   109.7500473 328.025600
   2343   2341   2353     1   110.5600475 386.601600
   2344   2340   2369     1   110.1100470 384.091200
   2344   2356   2357     1   109.8000471 387.438400
   2344   2356   2358     1   109.8000471 387.438400
   2345   2344   2356     1   110.5600475 386.601600
   2345   2344   2346     1   109.7500473 328.025600
   2346   2344   2356     1   110.5600475 386.601600
   2347   2340   2369     1   110.1100470 384.091200
   2347   2350   2351     1   109.8000471 387.438400
   2347   2350   2352     1   109.8000471 387.438400
   2348   2347   2350     1   110.5600475 386.601600
   2348   2347   2349     1   109.7500473 328.025600
   2349   2347   2350     1   110.5600475 386.601600
   2350   2359   2360     1   109.5600471 388.275200
   2350   2359   2361     1   109.5600471 388.275200
   2351   2350   2359     1   109.8000471 387.438400
   2351   2350   2352     1   107.5800459 329.699200
   2352   2350   2359     1   109.8000471 387.438400
   2353   2365   2366     1   109.5600471 388.275200
   2353   2365   2367     1   109.5600471 388.275200
   2354   2353   2365     1   109.8000471 387.438400
   2354   2353   2355     1   107.5800459 329.699200
   2355   2353   2365     1   109.8000471 387.438400
   2356   2362   2363     1   109.5600471 388.275200
   2356   2362   2364     1   109.5600471 388.275200
   2357   2356   2362     1   109.8000471 387.438400
   2357   2356   2358     1   107.5800459 329.699200
   2358   2356   2362     1   109.8000471 387.438400
   2360   2359   2368     1   109.7800468 425.094400
   2360   2359   2361     1   108.4600466 328.025600
   2361   2359   2368     1   109.7800468 425.094400
   2363   2362   3728     1   109.7800468 425.094400
   2363   2362   2364     1   108.4600466 328.025600
   2364   2362   3728     1   109.7800468 425.094400
   2366   2365   3742     1   109.7800468 425.094400
   2366   2365   2367     1   108.4600466 328.025600
   2367   2365   3742     1   109.7800468 425.094400
   2370   2371   2372     1   108.0100461 406.684800
   2370   2371   2373     1   108.0100461 406.684800
   2370   2374   2375     1   108.0100461 406.684800
   2370   2374   2376     1   108.0100461 406.684800
   2370   2377   2378     1   108.0100461 406.684800
   2370   2377   2379     1   108.0100461 406.684800
   2371   2370   2399     1   110.1100470 384.091200
   2371   2383   2384     1   109.8000471 387.438400
   2371   2383   2385     1   109.8000471 387.438400
   2372   2371   2383     1   110.5600475 386.601600
   2372   2371   2373     1   109.7500473 328.025600
   2373   2371   2383     1   110.5600475 386.601600
   2374   2370   2399     1   110.1100470 384.091200
   2374   2386   2387     1   109.8000471 387.438400
   2374   2386   2388     1   109.8000471 387.438400
   2375   2374   2386     1   110.5600475 386.601600
   2375   2374   2376     1   109.7500473 328.025600
   2376   2374   2386     1   110.5600475 386.601600
   2377   2370   2399     1   110.1100470 384.091200
   2377   2380   2381     1   109.8000471 387.438400
   2377   2380   2382     1   109.8000471 387.438400
   2378   2377   2380     1   110.5600475 386.601600
   2378   2377   2379     1   109.7500473 328.025600
   2379   2377   2380     1   110.5600475 386.601600
   2380   2389   2390     1   109.5600471 388.275200
   2380   2389   2391     1   109.5600471 388.275200
   2381   2380   2389     1   109.8000471 387.438400
   2381   2380   2382     1   107.5800459 329.699200
   2382   2380   2389     1   109.8000471 387.438400
   2383   2395   2396     1   109.5600471 388.275200
   2383   2395   2397     1   109.5600471 388.275200
   2384   2383   2395     1   109.8000471 387.438400
   2384   2383   2385     1   107.5800459 329.699200
   2385   2383   2395     1   109.8000471 387.438400
   2386   2392   2393     1   109.5600471 388.275200
   2386   2392   2394     1   109.5600471 388.275200
   2387   2386   2392     1   109.8000471 387.438400
   2387   2386   2388     1   107.5800459 329.699200
   2388   2386   2392     1   109.8000471 387.438400
   2390   2389   2398     1   109.7800468 425.094400
   2390   2389   2391     1   108.4600466 328.025600
   2391   2389   2398     1   109.7800468 425.094400
   2393   2392   3756     1   109.7800468 425.094400
   2393   2392   2394     1   108.4600466 328.025600
   2394   2392   3756     1   109.7800468 425.094400
   2396   2395   3770     1   109.7800468 425.094400
   2396   2395   2397     1   108.4600466 328.025600
   2397   2395   3770     1   109.7800468 425.094400
   2400   2401   2402     1   108.0100461 406.684800
   2400   2401   2403     1   108.0100461 406.684800
   2400   2404   2405     1   108.0100461 406.684800
   2400   2404   2406     1   108.0100461 406.684800
   2400   2407   2408     1   108.0100461 406.684800
   2400   2407   2409     1   108.0100461 406.684800
   2401   2400   2429     1   110.1100470 384.091200
   2401   2413   2414     1   109.8000471 387.438400
   2401   2413   2415     1   109.8000471 387.438400
   2402   2401   2413     1   110.5600475 386.601600
   2402   2401   2403     1   109.7500473 328.025600
   2403   2401   2413     1   110.5600475 386.601600
   2404   2400   2429     1   110.1100470 384.091200
   2404   2416   2417     1   109.8000471 387.438400
   2404   2416   2418     1   109.8000471 387.438400
   2405   2404   2416     1   110.5600475 386.601600
   2405   2404   2406     1   109.7500473 328.025600
   2406   2404   2416     1   110.5600475 386.601600
   2407   2400   2429     1   110.1100470 384.091200
   2407   2410   2411     1   109.8000471 387.438400
   2407   2410   2412     1   109.8000471 387.438400
   2408   2407   2410     1   110.5600475 386.601600
   2408   2407   2409     1   109.7500473 328.025600
   2409   2407   2410     1   110.5600475 386.601600
   2410   2419   2420     1   109.5600471 388.275200
   2410   2419   2421     1   109.5600471 388.275200
   2411   2410   2419     1   109.8000471 387.438400
   2411   2410   2412     1   107.5800459 329.699200
   2412   2410   2419     1   109.8000471 387.438400
   2413   2425   2426     1   109.5600471 388.275200
   2413   2425   2427     1   109.5600471 388.275200
   2414   2413   2425     1   109.8000471 387.438400
   2414   2413   2415     1   107.5800459 329.699200
   2415   2413   2425     1   109.8000471 387.438400
   2416   2422   2423     1   109.5600471 388.275200
   2416   2422   2424     1   109.5600471 388.275200
   2417   2416   2422     1   109.8000471 387.438400
   2417   2416   2418     1   107.5800459 329.699200
   2418   2416   2422     1   109.8000471 387.438400
   2420   2419   2428     1   109.7800468 425.094400
   2420   2419   2421     1   108.4600466 328.025600
   2421   2419   2428     1   109.7800468 425.094400
   2423   2422   3784     1   109.7800468 425.094400
   2423   2422   2424     1   108.4600466 328.025600
   2424   2422   3784     1   109.7800468 425.094400
   2426   2425   3798     1   109.7800468 425.094400
   2426   2425   2427     1   108.4600466 328.025600
   2427   2425   3798     1   109.7800468 425.094400
   2430   2431   2432     1   108.0100461 406.684800
   2430   2431   2433     1   108.0100461 406.684800
   2430   2434   2435     1   108.0100461 406.684800
   2430   2434   2436     1   108.0100461 406.684800
   2430   2437   2438     1   108.0100461 406.684800
   2430   2437   2439     1   108.0100461 406.684800
   2431   2430   2459     1   110.1100470 384.091200
   2431   2443   2444     1   109.8000471 387.438400
   2431   2443   2445     1   109.8000471 387.438400
   2432   2431   2443     1   110.5600475 386.601600
   2432   2431   2433     1   109.7500473 328.025600
   2433   2431   2443     1   110.5600475 386.601600
   2434   2430   2459     1   110.1100470 384.091200
   2434   2446   2447     1   109.8000471 387.438400
   2434   2446   2448     1   109.8000471 387.438400
   2435   2434   2446     1   110.5600475 386.601600
   2435   2434   2436     1   109.7500473 328.025600
   2436   2434   2446     1   110.5600475 386.601600
   2437   2430   2459     1   110.1100470 384.091200
   2437   2440   2441     1   109.8000471 387.438400
   2437   2440   2442     1   109.8000471 387.438400
   2438   2437   2440     1   110.5600475 386.601600
   2438   2437   2439     1   109.7500473 328.025600
   2439   2437   2440     1   110.5600475 386.601600
   2440   2449   2450     1   109.5600471 388.275200
   2440   2449   2451     1   109.5600471 388.275200
   2441   2440   2449     1   109.8000471 387.438400
   2441   2440   2442     1   107.5800459 329.699200
   2442   2440   2449     1   109.8000471 387.438400
   2443   2455   2456     1   109.5600471 388.275200
   2443   2455   2457     1   109.5600471 388.275200
   2444   2443   2455     1   109.8000471 387.438400
   2444   2443   2445     1   107.5800459 329.699200
   2445   2443   2455     1   109.8000471 387.438400
   2446   2452   2453     1   109.5600471 388.275200
   2446   2452   2454     1   109.5600471 388.275200
   2447   2446   2452     1   109.8000471 387.438400
   2447   2446   2448     1   107.5800459 329.699200
   2448   2446   2452     1   109.8000471 387.438400
   2450   2449   2458     1   109.7800468 425.094400
   2450   2449   2451     1   108.4600466 328.025600
   2451   2449   2458     1   109.7800468 425.094400
   2453   2452   3812     1   109.7800468 425.094400
   2453   2452   2454     1   108.4600466 328.025600
   2454   2452   3812     1   109.7800468 425.094400
   2456   2455   3826     1   109.7800468 425.094400
   2456   2455   2457     1   108.4600466 328.025600
   2457   2455   3826     1   109.7800468 425.094400
   2460   2461   2462     1   108.0100461 406.684800
   2460   2461   2463     1   108.0100461 406.684800
   2460   2464   2465     1   108.0100461 406.684800
   2460   2464   2466     1   108.0100461 406.684800
   2460   2467   2468     1   108.0100461 406.684800
   2460   2467   2469     1   108.0100461 406.684800
   2461   2460   2489     1   110.1100470 384.091200
   2461   2473   2474     1   109.8000471 387.438400
   2461   2473   2475     1   109.8000471 387.438400
   2462   2461   2473     1   110.5600475 386.601600
   2462   2461   2463     1   109.7500473 328.025600
   2463   2461   2473     1   110.5600475 386.601600
   2464   2460   2489     1   110.1100470 384.091200
   2464   2476   2477     1   109.8000471 387.438400
   2464   2476   2478     1   109.8000471 387.438400
   2465   2464   2476     1   110.5600475 386.601600
   2465   2464   2466     1   109.7500473 328.025600
   2466   2464   2476     1   110.5600475 386.601600
   2467   2460   2489     1   110.1100470 384.091200
   2467   2470   2471     1   109.8000471 387.438400
   2467   2470   2472     1   109.8000471 387.438400
   2468   2467   2470     1   110.5600475 386.601600
   2468   2467   2469     1   109.7500473 328.025600
   2469   2467   2470     1   110.5600475 386.601600
   2470   2479   2480     1   109.5600471 388.275200
   2470   2479   2481     1   109.5600471 388.275200
   2471   2470   2479     1   109.8000471 387.438400
   2471   2470   2472     1   107.5800459 329.699200
   2472   2470   2479     1   109.8000471 387.438400
   2473   2485   2486     1   109.5600471 388.275200
   2473   2485   2487     1   109.5600471 388.275200
   2474   2473   2485     1   109.8000471 387.438400
   2474   2473   2475     1   107.5800459 329.699200
   2475   2473   2485     1   109.8000471 387.438400
   2476   2482   2483     1   109.5600471 388.275200
   2476   2482   2484     1   109.5600471 388.275200
   2477   2476   2482     1   109.8000471 387.438400
   2477   2476   2478     1   107.5800459 329.699200
   2478   2476   2482     1   109.8000471 387.438400
   2480   2479   2488     1   109.7800468 425.094400
   2480   2479   2481     1   108.4600466 328.025600
   2481   2479   2488     1   109.7800468 425.094400
   2483   2482   3840     1   109.7800468 425.094400
   2483   2482   2484     1   108.4600466 328.025600
   2484   2482   3840     1   109.7800468 425.094400
   2486   2485   3854     1   109.7800468 425.094400
   2486   2485   2487     1   108.4600466 328.025600
   2487   2485   3854     1   109.7800468 425.094400
   2490   2491   2492     1   108.0100461 406.684800
   2490   2491   2493     1   108.0100461 406.684800
   2490   2494   2495     1   108.0100461 406.684800
   2490   2494   2496     1   108.0100461 406.684800
   2490   2497   2498     1   108.0100461 406.684800
   2490   2497   2499     1   108.0100461 406.684800
   2491   2490   2519     1   110.1100470 384.091200
   2491   2503   2504     1   109.8000471 387.438400
   2491   2503   2505     1   109.8000471 387.438400
   2492   2491   2503     1   110.5600475 386.601600
   2492   2491   2493     1   109.7500473 328.025600
   2493   2491   2503     1   110.5600475 386.601600
   2494   2490   2519     1   110.1100470 384.091200
   2494   2506   2507     1   109.8000471 387.438400
   2494   2506   2508     1   109.8000471 387.438400
   2495   2494   2506     1   110.5600475 386.601600
   2495   2494   2496     1   109.7500473 328.025600
   2496   2494   2506     1   110.5600475 386.601600
   2497   2490   2519     1   110.1100470 384.091200
   2497   2500   2501     1   109.8000471 387.438400
   2497   2500   2502     1   109.8000471 387.438400
   2498   2497   2500     1   110.5600475 386.601600
   2498   2497   2499     1   109.7500473 328.025600
   2499   2497   2500     1   110.5600475 386.601600
   2500   2509   2510     1   109.5600471 388.275200
   2500   2509   2511     1   109.5600471 388.275200
   2501   2500   2509     1   109.8000471 387.438400
   2501   2500   2502     1   107.5800459 329.699200
   2502   2500   2509     1   109.8000471 387.438400
   2503   2515   2516     1   109.5600471 388.275200
   2503   2515   2517     1   109.5600471 388.275200
   2504   2503   2515     1   109.8000471 387.438400
   2504   2503   2505     1   107.5800459 329.699200
   2505   2503   2515     1   109.8000471 387.438400
   2506   2512   2513     1   109.5600471 388.275200
   2506   2512   2514     1   109.5600471 388.275200
   2507   2506   2512     1   109.8000471 387.438400
   2507   2506   2508     1   107.5800459 329.699200
   2508   2506   2512     1   109.8000471 387.438400
   2510   2509   2518     1   109.7800468 425.094400
   2510   2509   2511     1   108.4600466 328.025600
   2511   2509   2518     1   109.7800468 425.094400
   2513   2512   3868     1   109.7800468 425.094400
   2513   2512   2514     1   108.4600466 328.025600
   2514   2512   3868     1   109.7800468 425.094400
   2516   2515   3882     1   109.7800468 425.094400
   2516   2515   2517     1   108.4600466 328.025600
   2517   2515   3882     1   109.7800468 425.094400
   2520   2521   2522     1   108.0100461 406.684800
   2520   2521   2523     1   108.0100461 406.684800
   2520   2524   2525     1   108.0100461 406.684800
   2520   2524   2526     1   108.0100461 406.684800
   2520   2527   2528     1   108.0100461 406.684800
   2520   2527   2529     1   108.0100461 406.684800
   2521   2520   2549     1   110.1100470 384.091200
   2521   2533   2534     1   109.8000471 387.438400
   2521   2533   2535     1   109.8000471 387.438400
   2522   2521   2533     1   110.5600475 386.601600
   2522   2521   2523     1   109.7500473 328.025600
   2523   2521   2533     1   110.5600475 386.601600
   2524   2520   2549     1   110.1100470 384.091200
   2524   2536   2537     1   109.8000471 387.438400
   2524   2536   2538     1   109.8000471 387.438400
   2525   2524   2536     1   110.5600475 386.601600
   2525   2524   2526     1   109.7500473 328.025600
   2526   2524   2536     1   110.5600475 386.601600
   2527   2520   2549     1   110.1100470 384.091200
   2527   2530   2531     1   109.8000471 387.438400
   2527   2530   2532     1   109.8000471 387.438400
   2528   2527   2530     1   110.5600475 386.601600
   2528   2527   2529     1   109.7500473 328.025600
   2529   2527   2530     1   110.5600475 386.601600
   2530   2539   2540     1   109.5600471 388.275200
   2530   2539   2541     1   109.5600471 388.275200
   2531   2530   2539     1   109.8000471 387.438400
   2531   2530   2532     1   107.5800459 329.699200
   2532   2530   2539     1   109.8000471 387.438400
   2533   2545   2546     1   109.5600471 388.275200
   2533   2545   2547     1   109.5600471 388.275200
   2534   2533   2545     1   109.8000471 387.438400
   2534   2533   2535     1   107.5800459 329.699200
   2535   2533   2545     1   109.8000471 387.438400
   2536   2542   2543     1   109.5600471 388.275200
   2536   2542   2544     1   109.5600471 388.275200
   2537   2536   2542     1   109.8000471 387.438400
   2537   2536   2538     1   107.5800459 329.699200
   2538   2536   2542     1   109.8000471 387.438400
   2540   2539   2548     1   109.7800468 425.094400
   2540   2539   2541     1   108.4600466 328.025600
   2541   2539   2548     1   109.7800468 425.094400
   2543   2542   3896     1   109.7800468 425.094400
   2543   2542   2544     1   108.4600466 328.025600
   2544   2542   3896     1   109.7800468 425.094400
   2546   2545   3910     1   109.7800468 425.094400
   2546   2545   2547     1   108.4600466 328.025600
   2547   2545   3910     1   109.7800468 425.094400
   2550   2551   2552     1   108.0100461 406.684800
   2550   2551   2553     1   108.0100461 406.684800
   2550   2554   2555     1   108.0100461 406.684800
   2550   2554   2556     1   108.0100461 406.684800
   2550   2557   2558     1   108.0100461 406.684800
   2550   2557   2559     1   108.0100461 406.684800
   2551   2550   2579     1   110.1100470 384.091200
   2551   2563   2564     1   109.8000471 387.438400
   2551   2563   2565     1   109.8000471 387.438400
   2552   2551   2563     1   110.5600475 386.601600
   2552   2551   2553     1   109.7500473 328.025600
   2553   2551   2563     1   110.5600475 386.601600
   2554   2550   2579     1   110.1100470 384.091200
   2554   2566   2567     1   109.8000471 387.438400
   2554   2566   2568     1   109.8000471 387.438400
   2555   2554   2566     1   110.5600475 386.601600
   2555   2554   2556     1   109.7500473 328.025600
   2556   2554   2566     1   110.5600475 386.601600
   2557   2550   2579     1   110.1100470 384.091200
   2557   2560   2561     1   109.8000471 387.438400
   2557   2560   2562     1   109.8000471 387.438400
   2558   2557   2560     1   110.5600475 386.601600
   2558   2557   2559     1   109.7500473 328.025600
   2559   2557   2560     1   110.5600475 386.601600
   2560   2569   2570     1   109.5600471 388.275200
   2560   2569   2571     1   109.5600471 388.275200
   2561   2560   2569     1   109.8000471 387.438400
   2561   2560   2562     1   107.5800459 329.699200
   2562   2560   2569     1   109.8000471 387.438400
   2563   2575   2576     1   109.5600471 388.275200
   2563   2575   2577     1   109.5600471 388.275200
   2564   2563   2575     1   109.8000471 387.438400
   2564   2563   2565     1   107.5800459 329.699200
   2565   2563   2575     1   109.8000471 387.438400
   2566   2572   2573     1   109.5600471 388.275200
   2566   2572   2574     1   109.5600471 388.275200
   2567   2566   2572     1   109.8000471 387.438400
   2567   2566   2568     1   107.5800459 329.699200
   2568   2566   2572     1   109.8000471 387.438400
   2570   2569   2578     1   109.7800468 425.094400
   2570   2569   2571     1   108.4600466 328.025600
   2571   2569   2578     1   109.7800468 425.094400
   2573   2572   3924     1   109.7800468 425.094400
   2573   2572   2574     1   108.4600466 328.025600
   2574   2572   3924     1   109.7800468 425.094400
   2576   2575   3938     1   109.7800468 425.094400
   2576   2575   2577     1   108.4600466 328.025600
   2577   2575   3938     1   109.7800468 425.094400
   2580   2581   2582     1   108.0100461 406.684800
   2580   2581   2583     1   108.0100461 406.684800
   2580   2584   2585     1   108.0100461 406.684800
   2580   2584   2586     1   108.0100461 406.684800
   2580   2587   2588     1   108.0100461 406.684800
   2580   2587   2589     1   108.0100461 406.684800
   2581   2580   2609     1   110.1100470 384.091200
   2581   2593   2594     1   109.8000471 387.438400
   2581   2593   2595     1   109.8000471 387.438400
   2582   2581   2593     1   110.5600475 386.601600
   2582   2581   2583     1   109.7500473 328.025600
   2583   2581   2593     1   110.5600475 386.601600
   2584   2580   2609     1   110.1100470 384.091200
   2584   2596   2597     1   109.8000471 387.438400
   2584   2596   2598     1   109.8000471 387.438400
   2585   2584   2596     1   110.5600475 386.601600
   2585   2584   2586     1   109.7500473 328.025600
   2586   2584   2596     1   110.5600475 386.601600
   2587   2580   2609     1   110.1100470 384.091200
   2587   2590   2591     1   109.8000471 387.438400
   2587   2590   2592     1   109.8000471 387.438400
   2588   2587   2590     1   110.5600475 386.601600
   2588   2587   2589     1   109.7500473 328.025600
   2589   2587   2590     1   110.5600475 386.601600
   2590   2599   2600     1   109.5600471 388.275200
   2590   2599   2601     1   109.5600471 388.275200
   2591   2590   2599     1   109.8000471 387.438400
   2591   2590   2592     1   107.5800459 329.699200
   2592   2590   2599     1   109.8000471 387.438400
   2593   2605   2606     1   109.5600471 388.275200
   2593   2605   2607     1   109.5600471 388.275200
   2594   2593   2605     1   109.8000471 387.438400
   2594   2593   2595     1   107.5800459 329.699200
   2595   2593   2605     1   109.8000471 387.438400
   2596   2602   2603     1   109.5600471 388.275200
   2596   2602   2604     1   109.5600471 388.275200
   2597   2596   2602     1   109.8000471 387.438400
   2597   2596   2598     1   107.5800459 329.699200
   2598   2596   2602     1   109.8000471 387.438400
   2600   2599   2608     1   109.7800468 425.094400
   2600   2599   2601     1   108.4600466 328.025600
   2601   2599   2608     1   109.7800468 425.094400
   2603   2602   3952     1   109.7800468 425.094400
   2603   2602   2604     1   108.4600466 328.025600
   2604   2602   3952     1   109.7800468 425.094400
   2606   2605   3966     1   109.7800468 425.094400
   2606   2605   2607     1   108.4600466 328.025600
   2607   2605   3966     1   109.7800468 425.094400
   2610   2611   2612     1   108.0100461 406.684800
   2610   2611   2613     1   108.0100461 406.684800
   2610   2614   2615     1   108.0100461 406.684800
   2610   2614   2616     1   108.0100461 406.684800
   2610   2617   2618     1   108.0100461 406.684800
   2610   2617   2619     1   108.0100461 406.684800
   2611   2610   2639     1   110.1100470 384.091200
   2611   2623   2624     1   109.8000471 387.438400
   2611   2623   2625     1   109.8000471 387.438400
   2612   2611   2623     1   110.5600475 386.601600
   2612   2611   2613     1   109.7500473 328.025600
   2613   2611   2623     1   110.5600475 386.601600
   2614   2610   2639     1   110.1100470 384.091200
   2614   2626   2627     1   109.8000471 387.438400
   2614   2626   2628     1   109.8000471 387.438400
   2615   2614   2626     1   110.5600475 386.601600
   2615   2614   2616     1   109.7500473 328.025600
   2616   2614   2626     1   110.5600475 386.601600
   2617   2610   2639     1   110.1100470 384.091200
   2617   2620   2621     1   109.8000471 387.438400
   2617   2620   2622     1   109.8000471 387.438400
   2618   2617   2620     1   110.5600475 386.601600
   2618   2617   2619     1   109.7500473 328.025600
   2619   2617   2620     1   110.5600475 386.601600
   2620   2629   2630     1   109.5600471 388.275200
   2620   2629   2631     1   109.5600471 388.275200
   2621   2620   2629     1   109.8000471 387.438400
   2621   2620   2622     1   107.5800459 329.699200
   2622   2620   2629     1   109.8000471 387.438400
   2623   2635   2636     1   109.5600471 388.275200
   2623   2635   2637     1   109.5600471 388.275200
   2624   2623   2635     1   109.8000471 387.438400
   2624   2623   2625     1   107.5800459 329.699200
   2625   2623   2635     1   109.8000471 387.438400
   2626   2632   2633     1   109.5600471 388.275200
   2626   2632   2634     1   109.5600471 388.275200
   2627   2626   2632     1   109.8000471 387.438400
   2627   2626   2628     1   107.5800459 329.699200
   2628   2626   2632     1   109.8000471 387.438400
   2630   2629   2638     1   109.7800468 425.094400
   2630   2629   2631     1   108.4600466 328.025600
   2631   2629   2638     1   109.7800468 425.094400
   2633   2632   3980     1   109.7800468 425.094400
   2633   2632   2634     1   108.4600466 328.025600
   2634   2632   3980     1   109.7800468 425.094400
   2636   2635   3994     1   109.7800468 425.094400
   2636   2635   2637     1   108.4600466 328.025600
   2637   2635   3994     1   109.7800468 425.094400
   2640   2641   2642     1   108.0100461 406.684800
   2640   2641   2643     1   108.0100461 406.684800
   2640   2644   2645     1   108.0100461 406.684800
   2640   2644   2646     1   108.0100461 406.684800
   2640   2647   2648     1   108.0100461 406.684800
   2640   2647   2649     1   108.0100461 406.684800
   2641   2640   2669     1   110.1100470 384.091200
   2641   2653   2654     1   109.8000471 387.438400
   2641   2653   2655     1   109.8000471 387.438400
   2642   2641   2653     1   110.5600475 386.601600
   2642   2641   2643     1   109.7500473 328.025600
   2643   2641   2653     1   110.5600475 386.601600
   2644   2640   2669     1   110.1100470 384.091200
   2644   2656   2657     1   109.8000471 387.438400
   2644   2656   2658     1   109.8000471 387.438400
   2645   2644   2656     1   110.5600475 386.601600
   2645   2644   2646     1   109.7500473 328.025600
   2646   2644   2656     1   110.5600475 386.601600
   2647   2640   2669     1   110.1100470 384.091200
   2647   2650   2651     1   109.8000471 387.438400
   2647   2650   2652     1   109.8000471 387.438400
   2648   2647   2650     1   110.5600475 386.601600
   2648   2647   2649     1   109.7500473 328.025600
   2649   2647   2650     1   110.5600475 386.601600
   2650   2659   2660     1   109.5600471 388.275200
   2650   2659   2661     1   109.5600471 388.275200
   2651   2650   2659     1   109.8000471 387.438400
   2651   2650   2652     1   107.5800459 329.699200
   2652   2650   2659     1   109.8000471 387.438400
   2653   2665   2666     1   109.5600471 388.275200
   2653   2665   2667     1   109.5600471 388.275200
   2654   2653   2665     1   109.8000471 387.438400
   2654   2653   2655     1   107.5800459 329.699200
   2655   2653   2665     1   109.8000471 387.438400
   2656   2662   2663     1   109.5600471 388.275200
   2656   2662   2664     1   109.5600471 388.275200
   2657   2656   2662     1   109.8000471 387.438400
   2657   2656   2658     1   107.5800459 329.699200
   2658   2656   2662     1   109.8000471 387.438400
   2660   2659   2668     1   109.7800468 425.094400
   2660   2659   2661     1   108.4600466 328.025600
   2661   2659   2668     1   109.7800468 425.094400
   2663   2662   4008     1   109.7800468 425.094400
   2663   2662   2664     1   108.4600466 328.025600
   2664   2662   4008     1   109.7800468 425.094400
   2666   2665   4022     1   109.7800468 425.094400
   2666   2665   2667     1   108.4600466 328.025600
   2667   2665   4022     1   109.7800468 425.094400
   2670   2671   2672     1   108.0100461 406.684800
   2670   2671   2673     1   108.0100461 406.684800
   2670   2674   2675     1   108.0100461 406.684800
   2670   2674   2676     1   108.0100461 406.684800
   2670   2677   2678     1   108.0100461 406.684800
   2670   2677   2679     1   108.0100461 406.684800
   2671   2670   2699     1   110.1100470 384.091200
   2671   2683   2684     1   109.8000471 387.438400
   2671   2683   2685     1   109.8000471 387.438400
   2672   2671   2683     1   110.5600475 386.601600
   2672   2671   2673     1   109.7500473 328.025600
   2673   2671   2683     1   110.5600475 386.601600
   2674   2670   2699     1   110.1100470 384.091200
   2674   2686   2687     1   109.8000471 387.438400
   2674   2686   2688     1   109.8000471 387.438400
   2675   2674   2686     1   110.5600475 386.601600
   2675   2674   2676     1   109.7500473 328.025600
   2676   2674   2686     1   110.5600475 386.601600
   2677   2670   2699     1   110.1100470 384.091200
   2677   2680   2681     1   109.8000471 387.438400
   2677   2680   2682     1   109.8000471 387.438400
   2678   2677   2680     1   110.5600475 386.601600
   2678   2677   2679     1   109.7500473 328.025600
   2679   2677   2680     1   110.5600475 386.601600
   2680   2689   2690     1   109.5600471 388.275200
   2680   2689   2691     1   109.5600471 388.275200
   2681   2680   2689     1   109.8000471 387.438400
   2681   2680   2682     1   107.5800459 329.699200
   2682   2680   2689     1   109.8000471 387.438400
   2683   2695   2696     1   109.5600471 388.275200
   2683   2695   2697     1   109.5600471 388.275200
   2684   2683   2695     1   109.8000471 387.438400
   2684   2683   2685     1   107.5800459 329.699200
   2685   2683   2695     1   109.8000471 387.438400
   2686   2692   2693     1   109.5600471 388.275200
   2686   2692   2694     1   109.5600471 388.275200
   2687   2686   2692     1   109.8000471 387.438400
   2687   2686   2688     1   107.5800459 329.699200
   2688   2686   2692     1   109.8000471 387.438400
   2690   2689   2698     1   109.7800468 425.094400
   2690   2689   2691     1   108.4600466 328.025600
   2691   2689   2698     1   109.7800468 425.094400
   2693   2692   4036     1   109.7800468 425.094400
   2693   2692   2694     1   108.4600466 328.025600
   2694   2692   4036     1   109.7800468 425.094400
   2696   2695   4050     1   109.7800468 425.094400
   2696   2695   2697     1   108.4600466 328.025600
   2697   2695   4050     1   109.7800468 425.094400
   2700   2701   2702     1   108.0100461 406.684800
   2700   2701   2703     1   108.0100461 406.684800
   2700   2704   2705     1   108.0100461 406.684800
   2700   2704   2706     1   108.0100461 406.684800
   2700   2707   2708     1   108.0100461 406.684800
   2700   2707   2709     1   108.0100461 406.684800
   2701   2700   2729     1   110.1100470 384.091200
   2701   2713   2714     1   109.8000471 387.438400
   2701   2713   2715     1   109.8000471 387.438400
   2702   2701   2713     1   110.5600475 386.601600
   2702   2701   2703     1   109.7500473 328.025600
   2703   2701   2713     1   110.5600475 386.601600
   2704   2700   2729     1   110.1100470 384.091200
   2704   2716   2717     1   109.8000471 387.438400
   2704   2716   2718     1   109.8000471 387.438400
   2705   2704   2716     1   110.5600475 386.601600
   2705   2704   2706     1   109.7500473 328.025600
   2706   2704   2716     1   110.5600475 386.601600
   2707   2700   2729     1   110.1100470 384.091200
   2707   2710   2711     1   109.8000471 387.438400
   2707   2710   2712     1   109.8000471 387.438400
   2708   2707   2710     1   110.5600475 386.601600
   2708   2707   2709     1   109.7500473 328.025600
   2709   2707   2710     1   110.5600475 386.601600
   2710   2719   2720     1   109.5600471 388.275200
   2710   2719   2721     1   109.5600471 388.275200
   2711   2710   2719     1   109.8000471 387.438400
   2711   2710   2712     1   107.5800459 329.699200
   2712   2710   2719     1   109.8000471 387.438400
   2713   2725   2726     1   109.5600471 388.275200
   2713   2725   2727     1   109.5600471 388.275200
   2714   2713   2725     1   109.8000471 387.438400
   2714   2713   2715     1   107.5800459 329.699200
   2715   2713   2725     1   109.8000471 387.438400
   2716   2722   2723     1   109.5600471 388.275200
   2716   2722   2724     1   109.5600471 388.275200
   2717   2716   2722     1   109.8000471 387.438400
   2717   2716   2718     1   107.5800459 329.699200
   2718   2716   2722     1   109.8000471 387.438400
   2720   2719   2728     1   109.7800468 425.094400
   2720   2719   2721     1   108.4600466 328.025600
   2721   2719   2728     1   109.7800468 425.094400
   2723   2722   4064     1   109.7800468 425.094400
   2723   2722   2724     1   108.4600466 328.025600
   2724   2722   4064     1   109.7800468 425.094400
   2726   2725   4078     1   109.7800468 425.094400
   2726   2725   2727     1   108.4600466 328.025600
   2727   2725   4078     1   109.7800468 425.094400
   2730   2731   2732     1   108.0100461 406.684800
   2730   2731   2733     1   108.0100461 406.684800
   2730   2734   2735     1   108.0100461 406.684800
   2730   2734   2736     1   108.0100461 406.684800
   2730   2737   2738     1   108.0100461 406.684800
   2730   2737   2739     1   108.0100461 406.684800
   2731   2730   2759     1   110.1100470 384.091200
   2731   2743   2744     1   109.8000471 387.438400
   2731   2743   2745     1   109.8000471 387.438400
   2732   2731   2743     1   110.5600475 386.601600
   2732   2731   2733     1   109.7500473 328.025600
   2733   2731   2743     1   110.5600475 386.601600
   2734   2730   2759     1   110.1100470 384.091200
   2734   2746   2747     1   109.8000471 387.438400
   2734   2746   2748     1   109.8000471 387.438400
   2735   2734   2746     1   110.5600475 386.601600
   2735   2734   2736     1   109.7500473 328.025600
   2736   2734   2746     1   110.5600475 386.601600
   2737   2730   2759     1   110.1100470 384.091200
   2737   2740   2741     1   109.8000471 387.438400
   2737   2740   2742     1   109.8000471 387.438400
   2738   2737   2740     1   110.5600475 386.601600
   2738   2737   2739     1   109.7500473 328.025600
   2739   2737   2740     1   110.5600475 386.601600
   2740   2749   2750     1   109.5600471 388.275200
   2740   2749   2751     1   109.5600471 388.275200
   2741   2740   2749     1   109.8000471 387.438400
   2741   2740   2742     1   107.5800459 329.699200
   2742   2740   2749     1   109.8000471 387.438400
   2743   2755   2756     1   109.5600471 388.275200
   2743   2755   2757     1   109.5600471 388.275200
   2744   2743   2755     1   109.8000471 387.438400
   2744   2743   2745     1   107.5800459 329.699200
   2745   2743   2755     1   109.8000471 387.438400
   2746   2752   2753     1   109.5600471 388.275200
   2746   2752   2754     1   109.5600471 388.275200
   2747   2746   2752     1   109.8000471 387.438400
   2747   2746   2748     1   107.5800459 329.699200
   2748   2746   2752     1   109.8000471 387.438400
   2750   2749   2758     1   109.7800468 425.094400
   2750   2749   2751     1   108.4600466 328.025600
   2751   2749   2758     1   109.7800468 425.094400
   2753   2752   4092     1   109.7800468 425.094400
   2753   2752   2754     1   108.4600466 328.025600
   2754   2752   4092     1   109.7800468 425.094400
   2756   2755   4106     1   109.7800468 425.094400
   2756   2755   2757     1   108.4600466 328.025600
   2757   2755   4106     1   109.7800468 425.094400
   2760   2761   2762     1   108.0100461 406.684800
   2760   2761   2763     1   108.0100461 406.684800
   2760   2764   2765     1   108.0100461 406.684800
   2760   2764   2766     1   108.0100461 406.684800
   2760   2767   2768     1   108.0100461 406.684800
   2760   2767   2769     1   108.0100461 406.684800
   2761   2760   2789     1   110.1100470 384.091200
   2761   2773   2774     1   109.8000471 387.438400
   2761   2773   2775     1   109.8000471 387.438400
   2762   2761   2773     1   110.5600475 386.601600
   2762   2761   2763     1   109.7500473 328.025600
   2763   2761   2773     1   110.5600475 386.601600
   2764   2760   2789     1   110.1100470 384.091200
   2764   2776   2777     1   109.8000471 387.438400
   2764   2776   2778     1   109.8000471 387.438400
   2765   2764   2776     1   110.5600475 386.601600
   2765   2764   2766     1   109.7500473 328.025600
   2766   2764   2776     1   110.5600475 386.601600
   2767   2760   2789     1   110.1100470 384.091200
   2767   2770   2771     1   109.8000471 387.438400
   2767   2770   2772     1   109.8000471 387.438400
   2768   2767   2770     1   110.5600475 386.601600
   2768   2767   2769     1   109.7500473 328.025600
   2769   2767   2770     1   110.5600475 386.601600
   2770   2779   2780     1   109.5600471 388.275200
   2770   2779   2781     1   109.5600471 388.275200
   2771   2770   2779     1   109.8000471 387.438400
   2771   2770   2772     1   107.5800459 329.699200
   2772   2770   2779     1   109.8000471 387.438400
   2773   2785   2786     1   109.5600471 388.275200
   2773   2785   2787     1   109.5600471 388.275200
   2774   2773   2785     1   109.8000471 387.438400
   2774   2773   2775     1   107.5800459 329.699200
   2775   2773   2785     1   109.8000471 387.438400
   2776   2782   2783     1   109.5600471 388.275200
   2776   2782   2784     1   109.5600471 388.275200
   2777   2776   2782     1   109.8000471 387.438400
   2777   2776   2778     1   107.5800459 329.699200
   2778   2776   2782     1   109.8000471 387.438400
   2780   2779   2788     1   109.7800468 425.094400
   2780   2779   2781     1   108.4600466 328.025600
   2781   2779   2788     1   109.7800468 425.094400
   2783   2782   4120     1   109.7800468 425.094400
   2783   2782   2784     1   108.4600466 328.025600
   2784   2782   4120     1   109.7800468 425.094400
   2786   2785   4134     1   109.7800468 425.094400
   2786   2785   2787     1   108.4600466 328.025600
   2787   2785   4134     1   109.7800468 425.094400
   2790   2791   2792     1   108.0100461 406.684800
   2790   2791   2793     1   108.0100461 406.684800
   2790   2794   2795     1   108.0100461 406.684800
   2790   2794   2796     1   108.0100461 406.684800
   2790   2797   2798     1   108.0100461 406.684800
   2790   2797   2799     1   108.0100461 406.684800
   2791   2790   2819     1   110.1100470 384.091200
   2791   2803   2804     1   109.8000471 387.438400
   2791   2803   2805     1   109.8000471 387.438400
   2792   2791   2803     1   110.5600475 386.601600
   2792   2791   2793     1   109.7500473 328.025600
   2793   2791   2803     1   110.5600475 386.601600
   2794   2790   2819     1   110.1100470 384.091200
   2794   2806   2807     1   109.8000471 387.438400
   2794   2806   2808     1   109.8000471 387.438400
   2795   2794   2806     1   110.5600475 386.601600
   2795   2794   2796     1   109.7500473 328.025600
   2796   2794   2806     1   110.5600475 386.601600
   2797   2790   2819     1   110.1100470 384.091200
   2797   2800   2801     1   109.8000471 387.438400
   2797   2800   2802     1   109.8000471 387.438400
   2798   2797   2800     1   110.5600475 386.601600
   2798   2797   2799     1   109.7500473 328.025600
   2799   2797   2800     1   110.5600475 386.601600
   2800   2809   2810     1   109.5600471 388.275200
   2800   2809   2811     1   109.5600471 388.275200
   2801   2800   2809     1   109.8000471 387.438400
   2801   2800   2802     1   107.5800459 329.699200
   2802   2800   2809     1   109.8000471 387.438400
   2803   2815   2816     1   109.5600471 388.275200
   2803   2815   2817     1   109.5600471 388.275200
   2804   2803   2815     1   109.8000471 387.438400
   2804   2803   2805     1   107.5800459 329.699200
   2805   2803   2815     1   109.8000471 387.438400
   2806   2812   2813     1   109.5600471 388.275200
   2806   2812   2814     1   109.5600471 388.275200
   2807   2806   2812     1   109.8000471 387.438400
   2807   2806   2808     1   107.5800459 329.699200
   2808   2806   2812     1   109.8000471 387.438400
   2810   2809   2818     1   109.7800468 425.094400
   2810   2809   2811     1   108.4600466 328.025600
   2811   2809   2818     1   109.7800468 425.094400
   2813   2812   4148     1   109.7800468 425.094400
   2813   2812   2814     1   108.4600466 328.025600
   2814   2812   4148     1   109.7800468 425.094400
   2816   2815   4162     1   109.7800468 425.094400
   2816   2815   2817     1   108.4600466 328.025600
   2817   2815   4162     1   109.7800468 425.094400
   2820   2823   2824     1   109.8000471 387.438400
   2820   2823   2825     1   109.8000471 387.438400
   2820   2829   2830     1   110.1100470 384.091200
   2820   2829   2831     1   110.1100470 384.091200
   2820   2829   2833     1   110.1100470 384.091200
   2821   2820   2823     1   110.5600475 386.601600
   2821   2820   2829     1   108.0100461 406.684800
   2821   2820   2822     1   109.7500473 328.025600
   2822   2820   2823     1   110.5600475 386.601600
   2822   2820   2829     1   108.0100461 406.684800
   2823   2826   2827     1   109.5600471 388.275200
   2823   2826   2828     1   109.5600471 388.275200
   2824   2823   2826     1   109.8000471 387.438400
   2824   2823   2825     1   107.5800459 329.699200
   2825   2823   2826     1   109.8000471 387.438400
   2827   2826   2832     1   109.7800468 425.094400
   2827   2826   2828     1   108.4600466 328.025600
   2828   2826   2832     1   109.7800468 425.094400
   2830   2829   2831     1   108.3000464 339.740800
   2830   2829   2833     1   108.3000464 339.740800
   2831   2829   2833     1   108.3000464 339.740800
   2834   2837   2838     1   109.8000471 387.438400
   2834   2837   2839     1   109.8000471 387.438400
   2834   2843   2844     1   110.1100470 384.091200
   2834   2843   2845     1   110.1100470 384.091200
   2834   2843   2847     1   110.1100470 384.091200
   2835   2834   2837     1   110.5600475 386.601600
   2835   2834   2843     1   108.0100461 406.684800
   2835   2834   2836     1   109.7500473 328.025600
   2836   2834   2837     1   110.5600475 386.601600
   2836   2834   2843     1   108.0100461 406.684800
   2837   2840   2841     1   109.5600471 388.275200
   2837   2840   2842     1   109.5600471 388.275200
   2838   2837   2840     1   109.8000471 387.438400
   2838   2837   2839     1   107.5800459 329.699200
   2839   2837   2840     1   109.8000471 387.438400
   2841   2840   2846     1   109.7800468 425.094400
   2841   2840   2842     1   108.4600466 328.025600
   2842   2840   2846     1   109.7800468 425.094400
   2844   2843   2845     1   108.3000464 339.740800
   2844   2843   2847     1   108.3000464 339.740800
   2845   2843   2847     1   108.3000464 339.740800
   2848   2851   2852     1   109.8000471 387.438400
   2848   2851   2853     1   109.8000471 387.438400
   2848   2857   2858     1   110.1100470 384.091200
   2848   2857   2859     1   110.1100470 384.091200
   2848   2857   2861     1   110.1100470 384.091200
   2849   2848   2851     1   110.5600475 386.601600
   2849   2848   2857     1   108.0100461 406.684800
   2849   2848   2850     1   109.7500473 328.025600
   2850   2848   2851     1   110.5600475 386.601600
   2850   2848   2857     1   108.0100461 406.684800
   2851   2854   2855     1   109.5600471 388.275200
   2851   2854   2856     1   109.5600471 388.275200
   2852   2851   2854     1   109.8000471 387.438400
   2852   2851   2853     1   107.5800459 329.699200
   2853   2851   2854     1   109.8000471 387.438400
   2855   2854   2860     1   109.7800468 425.094400
   2855   2854   2856     1   108.4600466 328.025600
   2856   2854   2860     1   109.7800468 425.094400
   2858   2857   2859     1   108.3000464 339.740800
   2858   2857   2861     1   108.3000464 339.740800
   2859   2857   2861     1   108.3000464 339.740800
   2862   2865   2866     1   109.8000471 387.438400
   2862   2865   2867     1   109.8000471 387.438400
   2862   2871   2872     1   110.1100470 384.091200
   2862   2871   2873     1   110.1100470 384.091200
   2862   2871   2875     1   110.1100470 384.091200
   2863   2862   2865     1   110.5600475 386.601600
   2863   2862   2871     1   108.0100461 406.684800
   2863   2862   2864     1   109.7500473 328.025600
   2864   2862   2865     1   110.5600475 386.601600
   2864   2862   2871     1   108.0100461 406.684800
   2865   2868   2869     1   109.5600471 388.275200
   2865   2868   2870     1   109.5600471 388.275200
   2866   2865   2868     1   109.8000471 387.438400
   2866   2865   2867     1   107.5800459 329.699200
   2867   2865   2868     1   109.8000471 387.438400
   2869   2868   2874     1   109.7800468 425.094400
   2869   2868   2870     1   108.4600466 328.025600
   2870   2868   2874     1   109.7800468 425.094400
   2872   2871   2873     1   108.3000464 339.740800
   2872   2871   2875     1   108.3000464 339.740800
   2873   2871   2875     1   108.3000464 339.740800
   2876   2879   2880     1   109.8000471 387.438400
   2876   2879   2881     1   109.8000471 387.438400
   2876   2885   2886     1   110.1100470 384.091200
   2876   2885   2887     1   110.1100470 384.091200
   2876   2885   2889     1   110.1100470 384.091200
   2877   2876   2879     1   110.5600475 386.601600
   2877   2876   2885     1   108.0100461 406.684800
   2877   2876   2878     1   109.7500473 328.025600
   2878   2876   2879     1   110.5600475 386.601600
   2878   2876   2885     1   108.0100461 406.684800
   2879   2882   2883     1   109.5600471 388.275200
   2879   2882   2884     1   109.5600471 388.275200
   2880   2879   2882     1   109.8000471 387.438400
   2880   2879   2881     1   107.5800459 329.699200
   2881   2879   2882     1   109.8000471 387.438400
   2883   2882   2888     1   109.7800468 425.094400
   2883   2882   2884     1   108.4600466 328.025600
   2884   2882   2888     1   109.7800468 425.094400
   2886   2885   2887     1   108.3000464 339.740800
   2886   2885   2889     1   108.3000464 339.740800
   2887   2885   2889     1   108.3000464 339.740800
   2890   2893   2894     1   109.8000471 387.438400
   2890   2893   2895     1   109.8000471 387.438400
   2890   2899   2900     1   110.1100470 384.091200
   2890   2899   2901     1   110.1100470 384.091200
   2890   2899   2903     1   110.1100470 384.091200
   2891   2890   2893     1   110.5600475 386.601600
   2891   2890   2899     1   108.0100461 406.684800
   2891   2890   2892     1   109.7500473 328.025600
   2892   2890   2893     1   110.5600475 386.601600
   2892   2890   2899     1   108.0100461 406.684800
   2893   2896   2897     1   109.5600471 388.275200
   2893   2896   2898     1   109.5600471 388.275200
   2894   2893   2896     1   109.8000471 387.438400
   2894   2893   2895     1   107.5800459 329.699200
   2895   2893   2896     1   109.8000471 387.438400
   2897   2896   2902     1   109.7800468 425.094400
   2897   2896   2898     1   108.4600466 328.025600
   2898   2896   2902     1   109.7800468 425.094400
   2900   2899   2901     1   108.3000464 339.740800
   2900   2899   2903     1   108.3000464 339.740800
   2901   2899   2903     1   108.3000464 339.740800
   2904   2907   2908     1   109.8000471 387.438400
   2904   2907   2909     1   109.8000471 387.438400
   2904   2913   2914     1   110.1100470 384.091200
   2904   2913   2915     1   110.1100470 384.091200
   2904   2913   2917     1   110.1100470 384.091200
   2905   2904   2907     1   110.5600475 386.601600
   2905   2904   2913     1   108.0100461 406.684800
   2905   2904   2906     1   109.7500473 328.025600
   2906   2904   2907     1   110.5600475 386.601600
   2906   2904   2913     1   108.0100461 406.684800
   2907   2910   2911     1   109.5600471 388.275200
   2907   2910   2912     1   109.5600471 388.275200
   2908   2907   2910     1   109.8000471 387.438400
   2908   2907   2909     1   107.5800459 329.699200
   2909   2907   2910     1   109.8000471 387.438400
   2911   2910   2916     1   109.7800468 425.094400
   2911   2910   2912     1   108.4600466 328.025600
   2912   2910   2916     1   109.7800468 425.094400
   2914   2913   2915     1   108.3000464 339.740800
   2914   2913   2917     1   108.3000464 339.740800
   2915   2913   2917     1   108.3000464 339.740800
   2918   2921   2922     1   109.8000471 387.438400
   2918   2921   2923     1   109.8000471 387.438400
   2918   2927   2928     1   110.1100470 384.091200
   2918   2927   2929     1   110.1100470 384.091200
   2918   2927   2931     1   110.1100470 384.091200
   2919   2918   2921     1   110.5600475 386.601600
   2919   2918   2927     1   108.0100461 406.684800
   2919   2918   2920     1   109.7500473 328.025600
   2920   2918   2921     1   110.5600475 386.601600
   2920   2918   2927     1   108.0100461 406.684800
   2921   2924   2925     1   109.5600471 388.275200
   2921   2924   2926     1   109.5600471 388.275200
   2922   2921   2924     1   109.8000471 387.438400
   2922   2921   2923     1   107.5800459 329.699200
   2923   2921   2924     1   109.8000471 387.438400
   2925   2924   2930     1   109.7800468 425.094400
   2925   2924   2926     1   108.4600466 328.025600
   2926   2924   2930     1   109.7800468 425.094400
   2928   2927   2929     1   108.3000464 339.740800
   2928   2927   2931     1   108.3000464 339.740800
   2929   2927   2931     1   108.3000464 339.740800
   2932   2935   2936     1   109.8000471 387.438400
   2932   2935   2937     1   109.8000471 387.438400
   2932   2941   2942     1   110.1100470 384.091200
   2932   2941   2943     1   110.1100470 384.091200
   2932   2941   2945     1   110.1100470 384.091200
   2933   2932   2935     1   110.5600475 386.601600
   2933   2932   2941     1   108.0100461 406.684800
   2933   2932   2934     1   109.7500473 328.025600
   2934   2932   2935     1   110.5600475 386.601600
   2934   2932   2941     1   108.0100461 406.684800
   2935   2938   2939     1   109.5600471 388.275200
   2935   2938   2940     1   109.5600471 388.275200
   2936   2935   2938     1   109.8000471 387.438400
   2936   2935   2937     1   107.5800459 329.699200
   2937   2935   2938     1   109.8000471 387.438400
   2939   2938   2944     1   109.7800468 425.094400
   2939   2938   2940     1   108.4600466 328.025600
   2940   2938   2944     1   109.7800468 425.094400
   2942   2941   2943     1   108.3000464 339.740800
   2942   2941   2945     1   108.3000464 339.740800
   2943   2941   2945     1   108.3000464 339.740800
   2946   2949   2950     1   109.8000471 387.438400
   2946   2949   2951     1   109.8000471 387.438400
   2946   2955   2956     1   110.1100470 384.091200
   2946   2955   2957     1   110.1100470 384.091200
   2946   2955   2959     1   110.1100470 384.091200
   2947   2946   2949     1   110.5600475 386.601600
   2947   2946   2955     1   108.0100461 406.684800
   2947   2946   2948     1   109.7500473 328.025600
   2948   2946   2949     1   110.5600475 386.601600
   2948   2946   2955     1   108.0100461 406.684800
   2949   2952   2953     1   109.5600471 388.275200
   2949   2952   2954     1   109.5600471 388.275200
   2950   2949   2952     1   109.8000471 387.438400
   2950   2949   2951     1   107.5800459 329.699200
   2951   2949   2952     1   109.8000471 387.438400
   2953   2952   2958     1   109.7800468 425.094400
   2953   2952   2954     1   108.4600466 328.025600
   2954   2952   2958     1   109.7800468 425.094400
   2956   2955   2957     1   108.3000464 339.740800
   2956   2955   2959     1   108.3000464 339.740800
   2957   2955   2959     1   108.3000464 339.740800
   2960   2963   2964     1   109.8000471 387.438400
   2960   2963   2965     1   109.8000471 387.438400
   2960   2969   2970     1   110.1100470 384.091200
   2960   2969   2971     1   110.1100470 384.091200
   2960   2969   2973     1   110.1100470 384.091200
   2961   2960   2963     1   110.5600475 386.601600
   2961   2960   2969     1   108.0100461 406.684800
   2961   2960   2962     1   109.7500473 328.025600
   2962   2960   2963     1   110.5600475 386.601600
   2962   2960   2969     1   108.0100461 406.684800
   2963   2966   2967     1   109.5600471 388.275200
   2963   2966   2968     1   109.5600471 388.275200
   2964   2963   2966     1   109.8000471 387.438400
   2964   2963   2965     1   107.5800459 329.699200
   2965   2963   2966     1   109.8000471 387.438400
   2967   2966   2972     1   109.7800468 425.094400
   2967   2966   2968     1   108.4600466 328.025600
   2968   2966   2972     1   109.7800468 425.094400
   2970   2969   2971     1   108.3000464 339.740800
   2970   2969   2973     1   108.3000464 339.740800
   2971   2969   2973     1   108.3000464 339.740800
   2974   2977   2978     1   109.8000471 387.438400
   2974   2977   2979     1   109.8000471 387.438400
   2974   2983   2984     1   110.1100470 384.091200
   2974   2983   2985     1   110.1100470 384.091200
   2974   2983   2987     1   110.1100470 384.091200
   2975   2974   2977     1   110.5600475 386.601600
   2975   2974   2983     1   108.0100461 406.684800
   2975   2974   2976     1   109.7500473 328.025600
   2976   2974   2977     1   110.5600475 386.601600
   2976   2974   2983     1   108.0100461 406.684800
   2977   2980   2981     1   109.5600471 388.275200
   2977   2980   2982     1   109.5600471 388.275200
   2978   2977   2980     1   109.8000471 387.438400
   2978   2977   2979     1   107.5800459 329.699200
   2979   2977   2980     1   109.8000471 387.438400
   2981   2980   2986     1   109.7800468 425.094400
   2981   2980   2982     1   108.4600466 328.025600
   2982   2980   2986     1   109.7800468 425.094400
   2984   2983   2985     1   108.3000464 339.740800
   2984   2983   2987     1   108.3000464 339.740800
   2985   2983   2987     1   108.3000464 339.740800
   2988   2991   2992     1   109.8000471 387.438400
   2988   2991   2993     1   109.8000471 387.438400
   2988   2997   2998     1   110.1100470 384.091200
   2988   2997   2999     1   110.1100470 384.091200
   2988   2997   3001     1   110.1100470 384.091200
   2989   2988   2991     1   110.5600475 386.601600
   2989   2988   2997     1   108.0100461 406.684800
   2989   2988   2990     1   109.7500473 328.025600
   2990   2988   2991     1   110.5600475 386.601600
   2990   2988   2997     1   108.0100461 406.684800
   2991   2994   2995     1   109.5600471 388.275200
   2991   2994   2996     1   109.5600471 388.275200
   2992   2991   2994     1   109.8000471 387.438400
   2992   2991   2993     1   107.5800459 329.699200
   2993   2991   2994     1   109.8000471 387.438400
   2995   2994   3000     1   109.7800468 425.094400
   2995   2994   2996     1   108.4600466 328.025600
   2996   2994   3000     1   109.7800468 425.094400
   2998   2997   2999     1   108.3000464 339.740800
   2998   2997   3001     1   108.3000464 339.740800
   2999   2997   3001     1   108.3000464 339.740800
   3002   3005   3006     1   109.8000471 387.438400
   3002   3005   3007     1   109.8000471 387.438400
   3002   3011   3012     1   110.1100470 384.091200
   3002   3011   3013     1   110.1100470 384.091200
   3002   3011   3015     1   110.1100470 384.091200
   3003   3002   3005     1   110.5600475 386.601600
   3003   3002   3011     1   108.0100461 406.684800
   3003   3002   3004     1   109.7500473 328.025600
   3004   3002   3005     1   110.5600475 386.601600
   3004   3002   3011     1   108.0100461 406.684800
   3005   3008   3009     1   109.5600471 388.275200
   3005   3008   3010     1   109.5600471 388.275200
   3006   3005   3008     1   109.8000471 387.438400
   3006   3005   3007     1   107.5800459 329.699200
   3007   3005   3008     1   109.8000471 387.438400
   3009   3008   3014     1   109.7800468 425.094400
   3009   3008   3010     1   108.4600466 328.025600
   3010   3008   3014     1   109.7800468 425.094400
   3012   3011   3013     1   108.3000464 339.740800
   3012   3011   3015     1   108.3000464 339.740800
   3013   3011   3015     1   108.3000464 339.740800
   3016   3019   3020     1   109.8000471 387.438400
   3016   3019   3021     1   109.8000471 387.438400
   3016   3025   3026     1   110.1100470 384.091200
   3016   3025   3027     1   110.1100470 384.091200
   3016   3025   3029     1   110.1100470 384.091200
   3017   3016   3019     1   110.5600475 386.601600
   3017   3016   3025     1   108.0100461 406.684800
   3017   3016   3018     1   109.7500473 328.025600
   3018   3016   3019     1   110.5600475 386.601600
   3018   3016   3025     1   108.0100461 406.684800
   3019   3022   3023     1   109.5600471 388.275200
   3019   3022   3024     1   109.5600471 388.275200
   3020   3019   3022     1   109.8000471 387.438400
   3020   3019   3021     1   107.5800459 329.699200
   3021   3019   3022     1   109.8000471 387.438400
   3023   3022   3028     1   109.7800468 425.094400
   3023   3022   3024     1   108.4600466 328.025600
   3024   3022   3028     1   109.7800468 425.094400
   3026   3025   3027     1   108.3000464 339.740800
   3026   3025   3029     1   108.3000464 339.740800
   3027   3025   3029     1   108.3000464 339.740800
   3030   3033   3034     1   109.8000471 387.438400
   3030   3033   3035     1   109.8000471 387.438400
   3030   3039   3040     1   110.1100470 384.091200
   3030   3039   3041     1   110.1100470 384.091200
   3030   3039   3043     1   110.1100470 384.091200
   3031   3030   3033     1   110.5600475 386.601600
   3031   3030   3039     1   108.0100461 406.684800
   3031   3030   3032     1   109.7500473 328.025600
   3032   3030   3033     1   110.5600475 386.601600
   3032   3030   3039     1   108.0100461 406.684800
   3033   3036   3037     1   109.5600471 388.275200
   3033   3036   3038     1   109.5600471 388.275200
   3034   3033   3036     1   109.8000471 387.438400
   3034   3033   3035     1   107.5800459 329.699200
   3035   3033   3036     1   109.8000471 387.438400
   3037   3036   3042     1   109.7800468 425.094400
   3037   3036   3038     1   108.4600466 328.025600
   3038   3036   3042     1   109.7800468 425.094400
   3040   3039   3041     1   108.3000464 339.740800
   3040   3039   3043     1   108.3000464 339.740800
   3041   3039   3043     1   108.3000464 339.740800
   3044   3047   3048     1   109.8000471 387.438400
   3044   3047   3049     1   109.8000471 387.438400
   3044   3053   3054     1   110.1100470 384.091200
   3044   3053   3055     1   110.1100470 384.091200
   3044   3053   3057     1   110.1100470 384.091200
   3045   3044   3047     1   110.5600475 386.601600
   3045   3044   3053     1   108.0100461 406.684800
   3045   3044   3046     1   109.7500473 328.025600
   3046   3044   3047     1   110.5600475 386.601600
   3046   3044   3053     1   108.0100461 406.684800
   3047   3050   3051     1   109.5600471 388.275200
   3047   3050   3052     1   109.5600471 388.275200
   3048   3047   3050     1   109.8000471 387.438400
   3048   3047   3049     1   107.5800459 329.699200
   3049   3047   3050     1   109.8000471 387.438400
   3051   3050   3056     1   109.7800468 425.094400
   3051   3050   3052     1   108.4600466 328.025600
   3052   3050   3056     1   109.7800468 425.094400
   3054   3053   3055     1   108.3000464 339.740800
   3054   3053   3057     1   108.3000464 339.740800
   3055   3053   3057     1   108.3000464 339.740800
   3058   3061   3062     1   109.8000471 387.438400
   3058   3061   3063     1   109.8000471 387.438400
   3058   3067   3068     1   110.1100470 384.091200
   3058   3067   3069     1   110.1100470 384.091200
   3058   3067   3071     1   110.1100470 384.091200
   3059   3058   3061     1   110.5600475 386.601600
   3059   3058   3067     1   108.0100461 406.684800
   3059   3058   3060     1   109.7500473 328.025600
   3060   3058   3061     1   110.5600475 386.601600
   3060   3058   3067     1   108.0100461 406.684800
   3061   3064   3065     1   109.5600471 388.275200
   3061   3064   3066     1   109.5600471 388.275200
   3062   3061   3064     1   109.8000471 387.438400
   3062   3061   3063     1   107.5800459 329.699200
   3063   3061   3064     1   109.8000471 387.438400
   3065   3064   3070     1   109.7800468 425.094400
   3065   3064   3066     1   108.4600466 328.025600
   3066   3064   3070     1   109.7800468 425.094400
   3068   3067   3069     1   108.3000464 339.740800
   3068   3067   3071     1   108.3000464 339.740800
   3069   3067   3071     1   108.3000464 339.740800
   3072   3075   3076     1   109.8000471 387.438400
   3072   3075   3077     1   109.8000471 387.438400
   3072   3081   3082     1   110.1100470 384.091200
   3072   3081   3083     1   110.1100470 384.091200
   3072   3081   3085     1   110.1100470 384.091200
   3073   3072   3075     1   110.5600475 386.601600
   3073   3072   3081     1   108.0100461 406.684800
   3073   3072   3074     1   109.7500473 328.025600
   3074   3072   3075     1   110.5600475 386.601600
   3074   3072   3081     1   108.0100461 406.684800
   3075   3078   3079     1   109.5600471 388.275200
   3075   3078   3080     1   109.5600471 388.275200
   3076   3075   3078     1   109.8000471 387.438400
   3076   3075   3077     1   107.5800459 329.699200
   3077   3075   3078     1   109.8000471 387.438400
   3079   3078   3084     1   109.7800468 425.094400
   3079   3078   3080     1   108.4600466 328.025600
   3080   3078   3084     1   109.7800468 425.094400
   3082   3081   3083     1   108.3000464 339.740800
   3082   3081   3085     1   108.3000464 339.740800
   3083   3081   3085     1   108.3000464 339.740800
   3086   3089   3090     1   109.8000471 387.438400
   3086   3089   3091     1   109.8000471 387.438400
   3086   3095   3096     1   110.1100470 384.091200
   3086   3095   3097     1   110.1100470 384.091200
   3086   3095   3099     1   110.1100470 384.091200
   3087   3086   3089     1   110.5600475 386.601600
   3087   3086   3095     1   108.0100461 406.684800
   3087   3086   3088     1   109.7500473 328.025600
   3088   3086   3089     1   110.5600475 386.601600
   3088   3086   3095     1   108.0100461 406.684800
   3089   3092   3093     1   109.5600471 388.275200
   3089   3092   3094     1   109.5600471 388.275200
   3090   3089   3092     1   109.8000471 387.438400
   3090   3089   3091     1   107.5800459 329.699200
   3091   3089   3092     1   109.8000471 387.438400
   3093   3092   3098     1   109.7800468 425.094400
   3093   3092   3094     1   108.4600466 328.025600
   3094   3092   3098     1   109.7800468 425.094400
   3096   3095   3097     1   108.3000464 339.740800
   3096   3095   3099     1   108.3000464 339.740800
   3097   3095   3099     1   108.3000464 339.740800
   3100   3103   3104     1   109.8000471 387.438400
   3100   3103   3105     1   109.8000471 387.438400
   3100   3109   3110     1   110.1100470 384.091200
   3100   3109   3111     1   110.1100470 384.091200
   3100   3109   3113     1   110.1100470 384.091200
   3101   3100   3103     1   110.5600475 386.601600
   3101   3100   3109     1   108.0100461 406.684800
   3101   3100   3102     1   109.7500473 328.025600
   3102   3100   3103     1   110.5600475 386.601600
   3102   3100   3109     1   108.0100461 406.684800
   3103   3106   3107     1   109.5600471 388.275200
   3103   3106   3108     1   109.5600471 388.275200
   3104   3103   3106     1   109.8000471 387.438400
   3104   3103   3105     1   107.5800459 329.699200
   3105   3103   3106     1   109.8000471 387.438400
   3107   3106   3112     1   109.7800468 425.094400
   3107   3106   3108     1   108.4600466 328.025600
   3108   3106   3112     1   109.7800468 425.094400
   3110   3109   3111     1   108.3000464 339.740800
   3110   3109   3113     1   108.3000464 339.740800
   3111   3109   3113     1   108.3000464 339.740800
   3114   3117   3118     1   109.8000471 387.438400
   3114   3117   3119     1   109.8000471 387.438400
   3114   3123   3124     1   110.1100470 384.091200
   3114   3123   3125     1   110.1100470 384.091200
   3114   3123   3127     1   110.1100470 384.091200
   3115   3114   3117     1   110.5600475 386.601600
   3115   3114   3123     1   108.0100461 406.684800
   3115   3114   3116     1   109.7500473 328.025600
   3116   3114   3117     1   110.5600475 386.601600
   3116   3114   3123     1   108.0100461 406.684800
   3117   3120   3121     1   109.5600471 388.275200
   3117   3120   3122     1   109.5600471 388.275200
   3118   3117   3120     1   109.8000471 387.438400
   3118   3117   3119     1   107.5800459 329.699200
   3119   3117   3120     1   109.8000471 387.438400
   3121   3120   3126     1   109.7800468 425.094400
   3121   3120   3122     1   108.4600466 328.025600
   3122   3120   3126     1   109.7800468 425.094400
   3124   3123   3125     1   108.3000464 339.740800
   3124   3123   3127     1   108.3000464 339.740800
   3125   3123   3127     1   108.3000464 339.740800
   3128   3131   3132     1   109.8000471 387.438400
   3128   3131   3133     1   109.8000471 387.438400
   3128   3137   3138     1   110.1100470 384.091200
   3128   3137   3139     1   110.1100470 384.091200
   3128   3137   3141     1   110.1100470 384.091200
   3129   3128   3131     1   110.5600475 386.601600
   3129   3128   3137     1   108.0100461 406.684800
   3129   3128   3130     1   109.7500473 328.025600
   3130   3128   3131     1   110.5600475 386.601600
   3130   3128   3137     1   108.0100461 406.684800
   3131   3134   3135     1   109.5600471 388.275200
   3131   3134   3136     1   109.5600471 388.275200
   3132   3131   3134     1   109.8000471 387.438400
   3132   3131   3133     1   107.5800459 329.699200
   3133   3131   3134     1   109.8000471 387.438400
   3135   3134   3140     1   109.7800468 425.094400
   3135   3134   3136     1   108.4600466 328.025600
   3136   3134   3140     1   109.7800468 425.094400
   3138   3137   3139     1   108.3000464 339.740800
   3138   3137   3141     1   108.3000464 339.740800
   3139   3137   3141     1   108.3000464 339.740800
   3142   3145   3146     1   109.8000471 387.438400
   3142   3145   3147     1   109.8000471 387.438400
   3142   3151   3152     1   110.1100470 384.091200
   3142   3151   3153     1   110.1100470 384.091200
   3142   3151   3155     1   110.1100470 384.091200
   3143   3142   3145     1   110.5600475 386.601600
   3143   3142   3151     1   108.0100461 406.684800
   3143   3142   3144     1   109.7500473 328.025600
   3144   3142   3145     1   110.5600475 386.601600
   3144   3142   3151     1   108.0100461 406.684800
   3145   3148   3149     1   109.5600471 388.275200
   3145   3148   3150     1   109.5600471 388.275200
   3146   3145   3148     1   109.8000471 387.438400
   3146   3145   3147     1   107.5800459 329.699200
   3147   3145   3148     1   109.8000471 387.438400
   3149   3148   3154     1   109.7800468 425.094400
   3149   3148   3150     1   108.4600466 328.025600
   3150   3148   3154     1   109.7800468 425.094400
   3152   3151   3153     1   108.3000464 339.740800
   3152   3151   3155     1   108.3000464 339.740800
   3153   3151   3155     1   108.3000464 339.740800
   3156   3159   3160     1   109.8000471 387.438400
   3156   3159   3161     1   109.8000471 387.438400
   3156   3165   3166     1   110.1100470 384.091200
   3156   3165   3167     1   110.1100470 384.091200
   3156   3165   3169     1   110.1100470 384.091200
   3157   3156   3159     1   110.5600475 386.601600
   3157   3156   3165     1   108.0100461 406.684800
   3157   3156   3158     1   109.7500473 328.025600
   3158   3156   3159     1   110.5600475 386.601600
   3158   3156   3165     1   108.0100461 406.684800
   3159   3162   3163     1   109.5600471 388.275200
   3159   3162   3164     1   109.5600471 388.275200
   3160   3159   3162     1   109.8000471 387.438400
   3160   3159   3161     1   107.5800459 329.699200
   3161   3159   3162     1   109.8000471 387.438400
   3163   3162   3168     1   109.7800468 425.094400
   3163   3162   3164     1   108.4600466 328.025600
   3164   3162   3168     1   109.7800468 425.094400
   3166   3165   3167     1   108.3000464 339.740800
   3166   3165   3169     1   108.3000464 339.740800
   3167   3165   3169     1   108.3000464 339.740800
   3170   3173   3174     1   109.8000471 387.438400
   3170   3173   3175     1   109.8000471 387.438400
   3170   3179   3180     1   110.1100470 384.091200
   3170   3179   3181     1   110.1100470 384.091200
   3170   3179   3183     1   110.1100470 384.091200
   3171   3170   3173     1   110.5600475 386.601600
   3171   3170   3179     1   108.0100461 406.684800
   3171   3170   3172     1   109.7500473 328.025600
   3172   3170   3173     1   110.5600475 386.601600
   3172   3170   3179     1   108.0100461 406.684800
   3173   3176   3177     1   109.5600471 388.275200
   3173   3176   3178     1   109.5600471 388.275200
   3174   3173   3176     1   109.8000471 387.438400
   3174   3173   3175     1   107.5800459 329.699200
   3175   3173   3176     1   109.8000471 387.438400
   3177   3176   3182     1   109.7800468 425.094400
   3177   3176   3178     1   108.4600466 328.025600
   3178   3176   3182     1   109.7800468 425.094400
   3180   3179   3181     1   108.3000464 339.740800
   3180   3179   3183     1   108.3000464 339.740800
   3181   3179   3183     1   108.3000464 339.740800
   3184   3187   3188     1   109.8000471 387.438400
   3184   3187   3189     1   109.8000471 387.438400
   3184   3193   3194     1   110.1100470 384.091200
   3184   3193   3195     1   110.1100470 384.091200
   3184   3193   3197     1   110.1100470 384.091200
   3185   3184   3187     1   110.5600475 386.601600
   3185   3184   3193     1   108.0100461 406.684800
   3185   3184   3186     1   109.7500473 328.025600
   3186   3184   3187     1   110.5600475 386.601600
   3186   3184   3193     1   108.0100461 406.684800
   3187   3190   3191     1   109.5600471 388.275200
   3187   3190   3192     1   109.5600471 388.275200
   3188   3187   3190     1   109.8000471 387.438400
   3188   3187   3189     1   107.5800459 329.699200
   3189   3187   3190     1   109.8000471 387.438400
   3191   3190   3196     1   109.7800468 425.094400
   3191   3190   3192     1   108.4600466 328.025600
   3192   3190   3196     1   109.7800468 425.094400
   3194   3193   3195     1   108.3000464 339.740800
   3194   3193   3197     1   108.3000464 339.740800
   3195   3193   3197     1   108.3000464 339.740800
   3198   3201   3202     1   109.8000471 387.438400
   3198   3201   3203     1   109.8000471 387.438400
   3198   3207   3208     1   110.1100470 384.091200
   3198   3207   3209     1   110.1100470 384.091200
   3198   3207   3211     1   110.1100470 384.091200
   3199   3198   3201     1   110.5600475 386.601600
   3199   3198   3207     1   108.0100461 406.684800
   3199   3198   3200     1   109.7500473 328.025600
   3200   3198   3201     1   110.5600475 386.601600
   3200   3198   3207     1   108.0100461 406.684800
   3201   3204   3205     1   109.5600471 388.275200
   3201   3204   3206     1   109.5600471 388.275200
   3202   3201   3204     1   109.8000471 387.438400
   3202   3201   3203     1   107.5800459 329.699200
   3203   3201   3204     1   109.8000471 387.438400
   3205   3204   3210     1   109.7800468 425.094400
   3205   3204   3206     1   108.4600466 328.025600
   3206   3204   3210     1   109.7800468 425.094400
   3208   3207   3209     1   108.3000464 339.740800
   3208   3207   3211     1   108.3000464 339.740800
   3209   3207   3211     1   108.3000464 339.740800
   3212   3215   3216     1   109.8000471 387.438400
   3212   3215   3217     1   109.8000471 387.438400
   3212   3221   3222     1   110.1100470 384.091200
   3212   3221   3223     1   110.1100470 384.091200
   3212   3221   3225     1   110.1100470 384.091200
   3213   3212   3215     1   110.5600475 386.601600
   3213   3212   3221     1   108.0100461 406.684800
   3213   3212   3214     1   109.7500473 328.025600
   3214   3212   3215     1   110.5600475 386.601600
   3214   3212   3221     1   108.0100461 406.684800
   3215   3218   3219     1   109.5600471 388.275200
   3215   3218   3220     1   109.5600471 388.275200
   3216   3215   3218     1   109.8000471 387.438400
   3216   3215   3217     1   107.5800459 329.699200
   3217   3215   3218     1   109.8000471 387.438400
   3219   3218   3224     1   109.7800468 425.094400
   3219   3218   3220     1   108.4600466 328.025600
   3220   3218   3224     1   109.7800468 425.094400
   3222   3221   3223     1   108.3000464 339.740800
   3222   3221   3225     1   108.3000464 339.740800
   3223   3221   3225     1   108.3000464 339.740800
   3226   3229   3230     1   109.8000471 387.438400
   3226   3229   3231     1   109.8000471 387.438400
   3226   3235   3236     1   110.1100470 384.091200
   3226   3235   3237     1   110.1100470 384.091200
   3226   3235   3239     1   110.1100470 384.091200
   3227   3226   3229     1   110.5600475 386.601600
   3227   3226   3235     1   108.0100461 406.684800
   3227   3226   3228     1   109.7500473 328.025600
   3228   3226   3229     1   110.5600475 386.601600
   3228   3226   3235     1   108.0100461 406.684800
   3229   3232   3233     1   109.5600471 388.275200
   3229   3232   3234     1   109.5600471 388.275200
   3230   3229   3232     1   109.8000471 387.438400
   3230   3229   3231     1   107.5800459 329.699200
   3231   3229   3232     1   109.8000471 387.438400
   3233   3232   3238     1   109.7800468 425.094400
   3233   3232   3234     1   108.4600466 328.025600
   3234   3232   3238     1   109.7800468 425.094400
   3236   3235   3237     1   108.3000464 339.740800
   3236   3235   3239     1   108.3000464 339.740800
   3237   3235   3239     1   108.3000464 339.740800
   3240   3243   3244     1   109.8000471 387.438400
   3240   3243   3245     1   109.8000471 387.438400
   3240   3249   3250     1   110.1100470 384.091200
   3240   3249   3251     1   110.1100470 384.091200
   3240   3249   3253     1   110.1100470 384.091200
   3241   3240   3243     1   110.5600475 386.601600
   3241   3240   3249     1   108.0100461 406.684800
   3241   3240   3242     1   109.7500473 328.025600
   3242   3240   3243     1   110.5600475 386.601600
   3242   3240   3249     1   108.0100461 406.684800
   3243   3246   3247     1   109.5600471 388.275200
   3243   3246   3248     1   109.5600471 388.275200
   3244   3243   3246     1   109.8000471 387.438400
   3244   3243   3245     1   107.5800459 329.699200
   3245   3243   3246     1   109.8000471 387.438400
   3247   3246   3252     1   109.7800468 425.094400
   3247   3246   3248     1   108.4600466 328.025600
   3248   3246   3252     1   109.7800468 425.094400
   3250   3249   3251     1   108.3000464 339.740800
   3250   3249   3253     1   108.3000464 339.740800
   3251   3249   3253     1   108.3000464 339.740800
   3254   3257   3258     1   109.8000471 387.438400
   3254   3257   3259     1   109.8000471 387.438400
   3254   3263   3264     1   110.1100470 384.091200
   3254   3263   3265     1   110.1100470 384.091200
   3254   3263   3267     1   110.1100470 384.091200
   3255   3254   3257     1   110.5600475 386.601600
   3255   3254   3263     1   108.0100461 406.684800
   3255   3254   3256     1   109.7500473 328.025600
   3256   3254   3257     1   110.5600475 386.601600
   3256   3254   3263     1   108.0100461 406.684800
   3257   3260   3261     1   109.5600471 388.275200
   3257   3260   3262     1   109.5600471 388.275200
   3258   3257   3260     1   109.8000471 387.438400
   3258   3257   3259     1   107.5800459 329.699200
   3259   3257   3260     1   109.8000471 387.438400
   3261   3260   3266     1   109.7800468 425.094400
   3261   3260   3262     1   108.4600466 328.025600
   3262   3260   3266     1   109.7800468 425.094400
   3264   3263   3265     1   108.3000464 339.740800
   3264   3263   3267     1   108.3000464 339.740800
   3265   3263   3267     1   108.3000464 339.740800
   3268   3271   3272     1   109.8000471 387.438400
   3268   3271   3273     1   109.8000471 387.438400
   3268   3277   3278     1   110.1100470 384.091200
   3268   3277   3279     1   110.1100470 384.091200
   3268   3277   3281     1   110.1100470 384.091200
   3269   3268   3271     1   110.5600475 386.601600
   3269   3268   3277     1   108.0100461 406.684800
   3269   3268   3270     1   109.7500473 328.025600
   3270   3268   3271     1   110.5600475 386.601600
   3270   3268   3277     1   108.0100461 406.684800
   3271   3274   3275     1   109.5600471 388.275200
   3271   3274   3276     1   109.5600471 388.275200
   3272   3271   3274     1   109.8000471 387.438400
   3272   3271   3273     1   107.5800459 329.699200
   3273   3271   3274     1   109.8000471 387.438400
   3275   3274   3280     1   109.7800468 425.094400
   3275   3274   3276     1   108.4600466 328.025600
   3276   3274   3280     1   109.7800468 425.094400
   3278   3277   3279     1   108.3000464 339.740800
   3278   3277   3281     1   108.3000464 339.740800
   3279   3277   3281     1   108.3000464 339.740800
   3282   3285   3286     1   109.8000471 387.438400
   3282   3285   3287     1   109.8000471 387.438400
   3282   3291   3292     1   110.1100470 384.091200
   3282   3291   3293     1   110.1100470 384.091200
   3282   3291   3295     1   110.1100470 384.091200
   3283   3282   3285     1   110.5600475 386.601600
   3283   3282   3291     1   108.0100461 406.684800
   3283   3282   3284     1   109.7500473 328.025600
   3284   3282   3285     1   110.5600475 386.601600
   3284   3282   3291     1   108.0100461 406.684800
   3285   3288   3289     1   109.5600471 388.275200
   3285   3288   3290     1   109.5600471 388.275200
   3286   3285   3288     1   109.8000471 387.438400
   3286   3285   3287     1   107.5800459 329.699200
   3287   3285   3288     1   109.8000471 387.438400
   3289   3288   3294     1   109.7800468 425.094400
   3289   3288   3290     1   108.4600466 328.025600
   3290   3288   3294     1   109.7800468 425.094400
   3292   3291   3293     1   108.3000464 339.740800
   3292   3291   3295     1   108.3000464 339.740800
   3293   3291   3295     1   108.3000464 339.740800
   3296   3299   3300     1   109.8000471 387.438400
   3296   3299   3301     1   109.8000471 387.438400
   3296   3305   3306     1   110.1100470 384.091200
   3296   3305   3307     1   110.1100470 384.091200
   3296   3305   3309     1   110.1100470 384.091200
   3297   3296   3299     1   110.5600475 386.601600
   3297   3296   3305     1   108.0100461 406.684800
   3297   3296   3298     1   109.7500473 328.025600
   3298   3296   3299     1   110.5600475 386.601600
   3298   3296   3305     1   108.0100461 406.684800
   3299   3302   3303     1   109.5600471 388.275200
   3299   3302   3304     1   109.5600471 388.275200
   3300   3299   3302     1   109.8000471 387.438400
   3300   3299   3301     1   107.5800459 329.699200
   3301   3299   3302     1   109.8000471 387.438400
   3303   3302   3308     1   109.7800468 425.094400
   3303   3302   3304     1   108.4600466 328.025600
   3304   3302   3308     1   109.7800468 425.094400
   3306   3305   3307     1   108.3000464 339.740800
   3306   3305   3309     1   108.3000464 339.740800
   3307   3305   3309     1   108.3000464 339.740800
   3310   3313   3314     1   109.8000471 387.438400
   3310   3313   3315     1   109.8000471 387.438400
   3310   3319   3320     1   110.1100470 384.091200
   3310   3319   3321     1   110.1100470 384.091200
   3310   3319   3323     1   110.1100470 384.091200
   3311   3310   3313     1   110.5600475 386.601600
   3311   3310   3319     1   108.0100461 406.684800
   3311   3310   3312     1   109.7500473 328.025600
   3312   3310   3313     1   110.5600475 386.601600
   3312   3310   3319     1   108.0100461 406.684800
   3313   3316   3317     1   109.5600471 388.275200
   3313   3316   3318     1   109.5600471 388.275200
   3314   3313   3316     1   109.8000471 387.438400
   3314   3313   3315     1   107.5800459 329.699200
   3315   3313   3316     1   109.8000471 387.438400
   3317   3316   3322     1   109.7800468 425.094400
   3317   3316   3318     1   108.4600466 328.025600
   3318   3316   3322     1   109.7800468 425.094400
   3320   3319   3321     1   108.3000464 339.740800
   3320   3319   3323     1   108.3000464 339.740800
   3321   3319   3323     1   108.3000464 339.740800
   3324   3327   3328     1   109.8000471 387.438400
   3324   3327   3329     1   109.8000471 387.438400
   3324   3333   3334     1   110.1100470 384.091200
   3324   3333   3335     1   110.1100470 384.091200
   3324   3333   3337     1   110.1100470 384.091200
   3325   3324   3327     1   110.5600475 386.601600
   3325   3324   3333     1   108.0100461 406.684800
   3325   3324   3326     1   109.7500473 328.025600
   3326   3324   3327     1   110.5600475 386.601600
   3326   3324   3333     1   108.0100461 406.684800
   3327   3330   3331     1   109.5600471 388.275200
   3327   3330   3332     1   109.5600471 388.275200
   3328   3327   3330     1   109.8000471 387.438400
   3328   3327   3329     1   107.5800459 329.699200
   3329   3327   3330     1   109.8000471 387.438400
   3331   3330   3336     1   109.7800468 425.094400
   3331   3330   3332     1   108.4600466 328.025600
   3332   3330   3336     1   109.7800468 425.094400
   3334   3333   3335     1   108.3000464 339.740800
   3334   3333   3337     1   108.3000464 339.740800
   3335   3333   3337     1   108.3000464 339.740800
   3338   3341   3342     1   109.8000471 387.438400
   3338   3341   3343     1   109.8000471 387.438400
   3338   3347   3348     1   110.1100470 384.091200
   3338   3347   3349     1   110.1100470 384.091200
   3338   3347   3351     1   110.1100470 384.091200
   3339   3338   3341     1   110.5600475 386.601600
   3339   3338   3347     1   108.0100461 406.684800
   3339   3338   3340     1   109.7500473 328.025600
   3340   3338   3341     1   110.5600475 386.601600
   3340   3338   3347     1   108.0100461 406.684800
   3341   3344   3345     1   109.5600471 388.275200
   3341   3344   3346     1   109.5600471 388.275200
   3342   3341   3344     1   109.8000471 387.438400
   3342   3341   3343     1   107.5800459 329.699200
   3343   3341   3344     1   109.8000471 387.438400
   3345   3344   3350     1   109.7800468 425.094400
   3345   3344   3346     1   108.4600466 328.025600
   3346   3344   3350     1   109.7800468 425.094400
   3348   3347   3349     1   108.3000464 339.740800
   3348   3347   3351     1   108.3000464 339.740800
   3349   3347   3351     1   108.3000464 339.740800
   3352   3355   3356     1   109.8000471 387.438400
   3352   3355   3357     1   109.8000471 387.438400
   3352   3361   3362     1   110.1100470 384.091200
   3352   3361   3363     1   110.1100470 384.091200
   3352   3361   3365     1   110.1100470 384.091200
   3353   3352   3355     1   110.5600475 386.601600
   3353   3352   3361     1   108.0100461 406.684800
   3353   3352   3354     1   109.7500473 328.025600
   3354   3352   3355     1   110.5600475 386.601600
   3354   3352   3361     1   108.0100461 406.684800
   3355   3358   3359     1   109.5600471 388.275200
   3355   3358   3360     1   109.5600471 388.275200
   3356   3355   3358     1   109.8000471 387.438400
   3356   3355   3357     1   107.5800459 329.699200
   3357   3355   3358     1   109.8000471 387.438400
   3359   3358   3364     1   109.7800468 425.094400
   3359   3358   3360     1   108.4600466 328.025600
   3360   3358   3364     1   109.7800468 425.094400
   3362   3361   3363     1   108.3000464 339.740800
   3362   3361   3365     1   108.3000464 339.740800
   3363   3361   3365     1   108.3000464 339.740800
   3366   3369   3370     1   109.8000471 387.438400
   3366   3369   3371     1   109.8000471 387.438400
   3366   3375   3376     1   110.1100470 384.091200
   3366   3375   3377     1   110.1100470 384.091200
   3366   3375   3379     1   110.1100470 384.091200
   3367   3366   3369     1   110.5600475 386.601600
   3367   3366   3375     1   108.0100461 406.684800
   3367   3366   3368     1   109.7500473 328.025600
   3368   3366   3369     1   110.5600475 386.601600
   3368   3366   3375     1   108.0100461 406.684800
   3369   3372   3373     1   109.5600471 388.275200
   3369   3372   3374     1   109.5600471 388.275200
   3370   3369   3372     1   109.8000471 387.438400
   3370   3369   3371     1   107.5800459 329.699200
   3371   3369   3372     1   109.8000471 387.438400
   3373   3372   3378     1   109.7800468 425.094400
   3373   3372   3374     1   108.4600466 328.025600
   3374   3372   3378     1   109.7800468 425.094400
   3376   3375   3377     1   108.3000464 339.740800
   3376   3375   3379     1   108.3000464 339.740800
   3377   3375   3379     1   108.3000464 339.740800
   3380   3383   3384     1   109.8000471 387.438400
   3380   3383   3385     1   109.8000471 387.438400
   3380   3389   3390     1   110.1100470 384.091200
   3380   3389   3391     1   110.1100470 384.091200
   3380   3389   3393     1   110.1100470 384.091200
   3381   3380   3383     1   110.5600475 386.601600
   3381   3380   3389     1   108.0100461 406.684800
   3381   3380   3382     1   109.7500473 328.025600
   3382   3380   3383     1   110.5600475 386.601600
   3382   3380   3389     1   108.0100461 406.684800
   3383   3386   3387     1   109.5600471 388.275200
   3383   3386   3388     1   109.5600471 388.275200
   3384   3383   3386     1   109.8000471 387.438400
   3384   3383   3385     1   107.5800459 329.699200
   3385   3383   3386     1   109.8000471 387.438400
   3387   3386   3392     1   109.7800468 425.094400
   3387   3386   3388     1   108.4600466 328.025600
   3388   3386   3392     1   109.7800468 425.094400
   3390   3389   3391     1   108.3000464 339.740800
   3390   3389   3393     1   108.3000464 339.740800
   3391   3389   3393     1   108.3000464 339.740800
   3394   3397   3398     1   109.8000471 387.438400
   3394   3397   3399     1   109.8000471 387.438400
   3394   3403   3404     1   110.1100470 384.091200
   3394   3403   3405     1   110.1100470 384.091200
   3394   3403   3407     1   110.1100470 384.091200
   3395   3394   3397     1   110.5600475 386.601600
   3395   3394   3403     1   108.0100461 406.684800
   3395   3394   3396     1   109.7500473 328.025600
   3396   3394   3397     1   110.5600475 386.601600
   3396   3394   3403     1   108.0100461 406.684800
   3397   3400   3401     1   109.5600471 388.275200
   3397   3400   3402     1   109.5600471 388.275200
   3398   3397   3400     1   109.8000471 387.438400
   3398   3397   3399     1   107.5800459 329.699200
   3399   3397   3400     1   109.8000471 387.438400
   3401   3400   3406     1   109.7800468 425.094400
   3401   3400   3402     1   108.4600466 328.025600
   3402   3400   3406     1   109.7800468 425.094400
   3404   3403   3405     1   108.3000464 339.740800
   3404   3403   3407     1   108.3000464 339.740800
   3405   3403   3407     1   108.3000464 339.740800
   3408   3411   3412     1   109.8000471 387.438400
   3408   3411   3413     1   109.8000471 387.438400
   3408   3417   3418     1   110.1100470 384.091200
   3408   3417   3419     1   110.1100470 384.091200
   3408   3417   3421     1   110.1100470 384.091200
   3409   3408   3411     1   110.5600475 386.601600
   3409   3408   3417     1   108.0100461 406.684800
   3409   3408   3410     1   109.7500473 328.025600
   3410   3408   3411     1   110.5600475 386.601600
   3410   3408   3417     1   108.0100461 406.684800
   3411   3414   3415     1   109.5600471 388.275200
   3411   3414   3416     1   109.5600471 388.275200
   3412   3411   3414     1   109.8000471 387.438400
   3412   3411   3413     1   107.5800459 329.699200
   3413   3411   3414     1   109.8000471 387.438400
   3415   3414   3420     1   109.7800468 425.094400
   3415   3414   3416     1   108.4600466 328.025600
   3416   3414   3420     1   109.7800468 425.094400
   3418   3417   3419     1   108.3000464 339.740800
   3418   3417   3421     1   108.3000464 339.740800
   3419   3417   3421     1   108.3000464 339.740800
   3422   3425   3426     1   109.8000471 387.438400
   3422   3425   3427     1   109.8000471 387.438400
   3422   3431   3432     1   110.1100470 384.091200
   3422   3431   3433     1   110.1100470 384.091200
   3422   3431   3435     1   110.1100470 384.091200
   3423   3422   3425     1   110.5600475 386.601600
   3423   3422   3431     1   108.0100461 406.684800
   3423   3422   3424     1   109.7500473 328.025600
   3424   3422   3425     1   110.5600475 386.601600
   3424   3422   3431     1   108.0100461 406.684800
   3425   3428   3429     1   109.5600471 388.275200
   3425   3428   3430     1   109.5600471 388.275200
   3426   3425   3428     1   109.8000471 387.438400
   3426   3425   3427     1   107.5800459 329.699200
   3427   3425   3428     1   109.8000471 387.438400
   3429   3428   3434     1   109.7800468 425.094400
   3429   3428   3430     1   108.4600466 328.025600
   3430   3428   3434     1   109.7800468 425.094400
   3432   3431   3433     1   108.3000464 339.740800
   3432   3431   3435     1   108.3000464 339.740800
   3433   3431   3435     1   108.3000464 339.740800
   3436   3439   3440     1   109.8000471 387.438400
   3436   3439   3441     1   109.8000471 387.438400
   3436   3445   3446     1   110.1100470 384.091200
   3436   3445   3447     1   110.1100470 384.091200
   3436   3445   3449     1   110.1100470 384.091200
   3437   3436   3439     1   110.5600475 386.601600
   3437   3436   3445     1   108.0100461 406.684800
   3437   3436   3438     1   109.7500473 328.025600
   3438   3436   3439     1   110.5600475 386.601600
   3438   3436   3445     1   108.0100461 406.684800
   3439   3442   3443     1   109.5600471 388.275200
   3439   3442   3444     1   109.5600471 388.275200
   3440   3439   3442     1   109.8000471 387.438400
   3440   3439   3441     1   107.5800459 329.699200
   3441   3439   3442     1   109.8000471 387.438400
   3443   3442   3448     1   109.7800468 425.094400
   3443   3442   3444     1   108.4600466 328.025600
   3444   3442   3448     1   109.7800468 425.094400
   3446   3445   3447     1   108.3000464 339.740800
   3446   3445   3449     1   108.3000464 339.740800
   3447   3445   3449     1   108.3000464 339.740800
   3450   3453   3454     1   109.8000471 387.438400
   3450   3453   3455     1   109.8000471 387.438400
   3450   3459   3460     1   110.1100470 384.091200
   3450   3459   3461     1   110.1100470 384.091200
   3450   3459   3463     1   110.1100470 384.091200
   3451   3450   3453     1   110.5600475 386.601600
   3451   3450   3459     1   108.0100461 406.684800
   3451   3450   3452     1   109.7500473 328.025600
   3452   3450   3453     1   110.5600475 386.601600
   3452   3450   3459     1   108.0100461 406.684800
   3453   3456   3457     1   109.5600471 388.275200
   3453   3456   3458     1   109.5600471 388.275200
   3454   3453   3456     1   109.8000471 387.438400
   3454   3453   3455     1   107.5800459 329.699200
   3455   3453   3456     1   109.8000471 387.438400
   3457   3456   3462     1   109.7800468 425.094400
   3457   3456   3458     1   108.4600466 328.025600
   3458   3456   3462     1   109.7800468 425.094400
   3460   3459   3461     1   108.3000464 339.740800
   3460   3459   3463     1   108.3000464 339.740800
   3461   3459   3463     1   108.3000464 339.740800
   3464   3467   3468     1   109.8000471 387.438400
   3464   3467   3469     1   109.8000471 387.438400
   3464   3473   3474     1   110.1100470 384.091200
   3464   3473   3475     1   110.1100470 384.091200
   3464   3473   3477     1   110.1100470 384.091200
   3465   3464   3467     1   110.5600475 386.601600
   3465   3464   3473     1   108.0100461 406.684800
   3465   3464   3466     1   109.7500473 328.025600
   3466   3464   3467     1   110.5600475 386.601600
   3466   3464   3473     1   108.0100461 406.684800
   3467   3470   3471     1   109.5600471 388.275200
   3467   3470   3472     1   109.5600471 388.275200
   3468   3467   3470     1   109.8000471 387.438400
   3468   3467   3469     1   107.5800459 329.699200
   3469   3467   3470     1   109.8000471 387.438400
   3471   3470   3476     1   109.7800468 425.094400
   3471   3470   3472     1   108.4600466 328.025600
   3472   3470   3476     1   109.7800468 425.094400
   3474   3473   3475     1   108.3000464 339.740800
   3474   3473   3477     1   108.3000464 339.740800
   3475   3473   3477     1   108.3000464 339.740800
   3478   3481   3482     1   109.8000471 387.438400
   3478   3481   3483     1   109.8000471 387.438400
   3478   3487   3488     1   110.1100470 384.091200
   3478   3487   3489     1   110.1100470 384.091200
   3478   3487   3491     1   110.1100470 384.091200
   3479   3478   3481     1   110.5600475 386.601600
   3479   3478   3487     1   108.0100461 406.684800
   3479   3478   3480     1   109.7500473 328.025600
   3480   3478   3481     1   110.5600475 386.601600
   3480   3478   3487     1   108.0100461 406.684800
   3481   3484   3485     1   109.5600471 388.275200
   3481   3484   3486     1   109.5600471 388.275200
   3482   3481   3484     1   109.8000471 387.438400
   3482   3481   3483     1   107.5800459 329.699200
   3483   3481   3484     1   109.8000471 387.438400
   3485   3484   3490     1   109.7800468 425.094400
   3485   3484   3486     1   108.4600466 328.025600
   3486   3484   3490     1   109.7800468 425.094400
   3488   3487   3489     1   108.3000464 339.740800
   3488   3487   3491     1   108.3000464 339.740800
   3489   3487   3491     1   108.3000464 339.740800
   3492   3495   3496     1   109.8000471 387.438400
   3492   3495   3497     1   109.8000471 387.438400
   3492   3501   3502     1   110.1100470 384.091200
   3492   3501   3503     1   110.1100470 384.091200
   3492   3501   3505     1   110.1100470 384.091200
   3493   3492   3495     1   110.5600475 386.601600
   3493   3492   3501     1   108.0100461 406.684800
   3493   3492   3494     1   109.7500473 328.025600
   3494   3492   3495     1   110.5600475 386.601600
   3494   3492   3501     1   108.0100461 406.684800
   3495   3498   3499     1   109.5600471 388.275200
   3495   3498   3500     1   109.5600471 388.275200
   3496   3495   3498     1   109.8000471 387.438400
   3496   3495   3497     1   107.5800459 329.699200
   3497   3495   3498     1   109.8000471 387.438400
   3499   3498   3504     1   109.7800468 425.094400
   3499   3498   3500     1   108.4600466 328.025600
   3500   3498   3504     1   109.7800468 425.094400
   3502   3501   3503     1   108.3000464 339.740800
   3502   3501   3505     1   108.3000464 339.740800
   3503   3501   3505     1   108.3000464 339.740800
   3506   3509   3510     1   109.8000471 387.438400
   3506   3509   3511     1   109.8000471 387.438400
   3506   3515   3516     1   110.1100470 384.091200
   3506   3515   3517     1   110.1100470 384.091200
   3506   3515   3519     1   110.1100470 384.091200
   3507   3506   3509     1   110.5600475 386.601600
   3507   3506   3515     1   108.0100461 406.684800
   3507   3506   3508     1   109.7500473 328.025600
   3508   3506   3509     1   110.5600475 386.601600
   3508   3506   3515     1   108.0100461 406.684800
   3509   3512   3513     1   109.5600471 388.275200
   3509   3512   3514     1   109.5600471 388.275200
   3510   3509   3512     1   109.8000471 387.438400
   3510   3509   3511     1   107.5800459 329.699200
   3511   3509   3512     1   109.8000471 387.438400
   3513   3512   3518     1   109.7800468 425.094400
   3513   3512   3514     1   108.4600466 328.025600
   3514   3512   3518     1   109.7800468 425.094400
   3516   3515   3517     1   108.3000464 339.740800
   3516   3515   3519     1   108.3000464 339.740800
   3517   3515   3519     1   108.3000464 339.740800
   3520   3523   3524     1   109.8000471 387.438400
   3520   3523   3525     1   109.8000471 387.438400
   3520   3529   3530     1   110.1100470 384.091200
   3520   3529   3531     1   110.1100470 384.091200
   3520   3529   3533     1   110.1100470 384.091200
   3521   3520   3523     1   110.5600475 386.601600
   3521   3520   3529     1   108.0100461 406.684800
   3521   3520   3522     1   109.7500473 328.025600
   3522   3520   3523     1   110.5600475 386.601600
   3522   3520   3529     1   108.0100461 406.684800
   3523   3526   3527     1   109.5600471 388.275200
   3523   3526   3528     1   109.5600471 388.275200
   3524   3523   3526     1   109.8000471 387.438400
   3524   3523   3525     1   107.5800459 329.699200
   3525   3523   3526     1   109.8000471 387.438400
   3527   3526   3532     1   109.7800468 425.094400
   3527   3526   3528     1   108.4600466 328.025600
   3528   3526   3532     1   109.7800468 425.094400
   3530   3529   3531     1   108.3000464 339.740800
   3530   3529   3533     1   108.3000464 339.740800
   3531   3529   3533     1   108.3000464 339.740800
   3534   3537   3538     1   109.8000471 387.438400
   3534   3537   3539     1   109.8000471 387.438400
   3534   3543   3544     1   110.1100470 384.091200
   3534   3543   3545     1   110.1100470 384.091200
   3534   3543   3547     1   110.1100470 384.091200
   3535   3534   3537     1   110.5600475 386.601600
   3535   3534   3543     1   108.0100461 406.684800
   3535   3534   3536     1   109.7500473 328.025600
   3536   3534   3537     1   110.5600475 386.601600
   3536   3534   3543     1   108.0100461 406.684800
   3537   3540   3541     1   109.5600471 388.275200
   3537   3540   3542     1   109.5600471 388.275200
   3538   3537   3540     1   109.8000471 387.438400
   3538   3537   3539     1   107.5800459 329.699200
   3539   3537   3540     1   109.8000471 387.438400
   3541   3540   3546     1   109.7800468 425.094400
   3541   3540   3542     1   108.4600466 328.025600
   3542   3540   3546     1   109.7800468 425.094400
   3544   3543   3545     1   108.3000464 339.740800
   3544   3543   3547     1   108.3000464 339.740800
   3545   3543   3547     1   108.3000464 339.740800
   3548   3551   3552     1   109.8000471 387.438400
   3548   3551   3553     1   109.8000471 387.438400
   3548   3557   3558     1   110.1100470 384.091200
   3548   3557   3559     1   110.1100470 384.091200
   3548   3557   3561     1   110.1100470 384.091200
   3549   3548   3551     1   110.5600475 386.601600
   3549   3548   3557     1   108.0100461 406.684800
   3549   3548   3550     1   109.7500473 328.025600
   3550   3548   3551     1   110.5600475 386.601600
   3550   3548   3557     1   108.0100461 406.684800
   3551   3554   3555     1   109.5600471 388.275200
   3551   3554   3556     1   109.5600471 388.275200
   3552   3551   3554     1   109.8000471 387.438400
   3552   3551   3553     1   107.5800459 329.699200
   3553   3551   3554     1   109.8000471 387.438400
   3555   3554   3560     1   109.7800468 425.094400
   3555   3554   3556     1   108.4600466 328.025600
   3556   3554   3560     1   109.7800468 425.094400
   3558   3557   3559     1   108.3000464 339.740800
   3558   3557   3561     1   108.3000464 339.740800
   3559   3557   3561     1   108.3000464 339.740800
   3562   3565   3566     1   109.8000471 387.438400
   3562   3565   3567     1   109.8000471 387.438400
   3562   3571   3572     1   110.1100470 384.091200
   3562   3571   3573     1   110.1100470 384.091200
   3562   3571   3575     1   110.1100470 384.091200
   3563   3562   3565     1   110.5600475 386.601600
   3563   3562   3571     1   108.0100461 406.684800
   3563   3562   3564     1   109.7500473 328.025600
   3564   3562   3565     1   110.5600475 386.601600
   3564   3562   3571     1   108.0100461 406.684800
   3565   3568   3569     1   109.5600471 388.275200
   3565   3568   3570     1   109.5600471 388.275200
   3566   3565   3568     1   109.8000471 387.438400
   3566   3565   3567     1   107.5800459 329.699200
   3567   3565   3568     1   109.8000471 387.438400
   3569   3568   3574     1   109.7800468 425.094400
   3569   3568   3570     1   108.4600466 328.025600
   3570   3568   3574     1   109.7800468 425.094400
   3572   3571   3573     1   108.3000464 339.740800
   3572   3571   3575     1   108.3000464 339.740800
   3573   3571   3575     1   108.3000464 339.740800
   3576   3579   3580     1   109.8000471 387.438400
   3576   3579   3581     1   109.8000471 387.438400
   3576   3585   3586     1   110.1100470 384.091200
   3576   3585   3587     1   110.1100470 384.091200
   3576   3585   3589     1   110.1100470 384.091200
   3577   3576   3579     1   110.5600475 386.601600
   3577   3576   3585     1   108.0100461 406.684800
   3577   3576   3578     1   109.7500473 328.025600
   3578   3576   3579     1   110.5600475 386.601600
   3578   3576   3585     1   108.0100461 406.684800
   3579   3582   3583     1   109.5600471 388.275200
   3579   3582   3584     1   109.5600471 388.275200
   3580   3579   3582     1   109.8000471 387.438400
   3580   3579   3581     1   107.5800459 329.699200
   3581   3579   3582     1   109.8000471 387.438400
   3583   3582   3588     1   109.7800468 425.094400
   3583   3582   3584     1   108.4600466 328.025600
   3584   3582   3588     1   109.7800468 425.094400
   3586   3585   3587     1   108.3000464 339.740800
   3586   3585   3589     1   108.3000464 339.740800
   3587   3585   3589     1   108.3000464 339.740800
   3590   3593   3594     1   109.8000471 387.438400
   3590   3593   3595     1   109.8000471 387.438400
   3590   3599   3600     1   110.1100470 384.091200
   3590   3599   3601     1   110.1100470 384.091200
   3590   3599   3603     1   110.1100470 384.091200
   3591   3590   3593     1   110.5600475 386.601600
   3591   3590   3599     1   108.0100461 406.684800
   3591   3590   3592     1   109.7500473 328.025600
   3592   3590   3593     1   110.5600475 386.601600
   3592   3590   3599     1   108.0100461 406.684800
   3593   3596   3597     1   109.5600471 388.275200
   3593   3596   3598     1   109.5600471 388.275200
   3594   3593   3596     1   109.8000471 387.438400
   3594   3593   3595     1   107.5800459 329.699200
   3595   3593   3596     1   109.8000471 387.438400
   3597   3596   3602     1   109.7800468 425.094400
   3597   3596   3598     1   108.4600466 328.025600
   3598   3596   3602     1   109.7800468 425.094400
   3600   3599   3601     1   108.3000464 339.740800
   3600   3599   3603     1   108.3000464 339.740800
   3601   3599   3603     1   108.3000464 339.740800
   3604   3607   3608     1   109.8000471 387.438400
   3604   3607   3609     1   109.8000471 387.438400
   3604   3613   3614     1   110.1100470 384.091200
   3604   3613   3615     1   110.1100470 384.091200
   3604   3613   3617     1   110.1100470 384.091200
   3605   3604   3607     1   110.5600475 386.601600
   3605   3604   3613     1   108.0100461 406.684800
   3605   3604   3606     1   109.7500473 328.025600
   3606   3604   3607     1   110.5600475 386.601600
   3606   3604   3613     1   108.0100461 406.684800
   3607   3610   3611     1   109.5600471 388.275200
   3607   3610   3612     1   109.5600471 388.275200
   3608   3607   3610     1   109.8000471 387.438400
   3608   3607   3609     1   107.5800459 329.699200
   3609   3607   3610     1   109.8000471 387.438400
   3611   3610   3616     1   109.7800468 425.094400
   3611   3610   3612     1   108.4600466 328.025600
   3612   3610   3616     1   109.7800468 425.094400
   3614   3613   3615     1   108.3000464 339.740800
   3614   3613   3617     1   108.3000464 339.740800
   3615   3613   3617     1   108.3000464 339.740800
   3618   3621   3622     1   109.8000471 387.438400
   3618   3621   3623     1   109.8000471 387.438400
   3618   3627   3628     1   110.1100470 384.091200
   3618   3627   3629     1   110.1100470 384.091200
   3618   3627   3631     1   110.1100470 384.091200
   3619   3618   3621     1   110.5600475 386.601600
   3619   3618   3627     1   108.0100461 406.684800
   3619   3618   3620     1   109.7500473 328.025600
   3620   3618   3621     1   110.5600475 386.601600
   3620   3618   3627     1   108.0100461 406.684800
   3621   3624   3625     1   109.5600471 388.275200
   3621   3624   3626     1   109.5600471 388.275200
   3622   3621   3624     1   109.8000471 387.438400
   3622   3621   3623     1   107.5800459 329.699200
   3623   3621   3624     1   109.8000471 387.438400
   3625   3624   3630     1   109.7800468 425.094400
   3625   3624   3626     1   108.4600466 328.025600
   3626   3624   3630     1   109.7800468 425.094400
   3628   3627   3629     1   108.3000464 339.740800
   3628   3627   3631     1   108.3000464 339.740800
   3629   3627   3631     1   108.3000464 339.740800
   3632   3635   3636     1   109.8000471 387.438400
   3632   3635   3637     1   109.8000471 387.438400
   3632   3641   3642     1   110.1100470 384.091200
   3632   3641   3643     1   110.1100470 384.091200
   3632   3641   3645     1   110.1100470 384.091200
   3633   3632   3635     1   110.5600475 386.601600
   3633   3632   3641     1   108.0100461 406.684800
   3633   3632   3634     1   109.7500473 328.025600
   3634   3632   3635     1   110.5600475 386.601600
   3634   3632   3641     1   108.0100461 406.684800
   3635   3638   3639     1   109.5600471 388.275200
   3635   3638   3640     1   109.5600471 388.275200
   3636   3635   3638     1   109.8000471 387.438400
   3636   3635   3637     1   107.5800459 329.699200
   3637   3635   3638     1   109.8000471 387.438400
   3639   3638   3644     1   109.7800468 425.094400
   3639   3638   3640     1   108.4600466 328.025600
   3640   3638   3644     1   109.7800468 425.094400
   3642   3641   3643     1   108.3000464 339.740800
   3642   3641   3645     1   108.3000464 339.740800
   3643   3641   3645     1   108.3000464 339.740800
   3646   3649   3650     1   109.8000471 387.438400
   3646   3649   3651     1   109.8000471 387.438400
   3646   3655   3656     1   110.1100470 384.091200
   3646   3655   3657     1   110.1100470 384.091200
   3646   3655   3659     1   110.1100470 384.091200
   3647   3646   3649     1   110.5600475 386.601600
   3647   3646   3655     1   108.0100461 406.684800
   3647   3646   3648     1   109.7500473 328.025600
   3648   3646   3649     1   110.5600475 386.601600
   3648   3646   3655     1   108.0100461 406.684800
   3649   3652   3653     1   109.5600471 388.275200
   3649   3652   3654     1   109.5600471 388.275200
   3650   3649   3652     1   109.8000471 387.438400
   3650   3649   3651     1   107.5800459 329.699200
   3651   3649   3652     1   109.8000471 387.438400
   3653   3652   3658     1   109.7800468 425.094400
   3653   3652   3654     1   108.4600466 328.025600
   3654   3652   3658     1   109.7800468 425.094400
   3656   3655   3657     1   108.3000464 339.740800
   3656   3655   3659     1   108.3000464 339.740800
   3657   3655   3659     1   108.3000464 339.740800
   3660   3663   3664     1   109.8000471 387.438400
   3660   3663   3665     1   109.8000471 387.438400
   3660   3669   3670     1   110.1100470 384.091200
   3660   3669   3671     1   110.1100470 384.091200
   3660   3669   3673     1   110.1100470 384.091200
   3661   3660   3663     1   110.5600475 386.601600
   3661   3660   3669     1   108.0100461 406.684800
   3661   3660   3662     1   109.7500473 328.025600
   3662   3660   3663     1   110.5600475 386.601600
   3662   3660   3669     1   108.0100461 406.684800
   3663   3666   3667     1   109.5600471 388.275200
   3663   3666   3668     1   109.5600471 388.275200
   3664   3663   3666     1   109.8000471 387.438400
   3664   3663   3665     1   107.5800459 329.699200
   3665   3663   3666     1   109.8000471 387.438400
   3667   3666   3672     1   109.7800468 425.094400
   3667   3666   3668     1   108.4600466 328.025600
   3668   3666   3672     1   109.7800468 425.094400
   3670   3669   3671     1   108.3000464 339.740800
   3670   3669   3673     1   108.3000464 339.740800
   3671   3669   3673     1   108.3000464 339.740800
   3674   3677   3678     1   109.8000471 387.438400
   3674   3677   3679     1   109.8000471 387.438400
   3674   3683   3684     1   110.1100470 384.091200
   3674   3683   3685     1   110.1100470 384.091200
   3674   3683   3687     1   110.1100470 384.091200
   3675   3674   3677     1   110.5600475 386.601600
   3675   3674   3683     1   108.0100461 406.684800
   3675   3674   3676     1   109.7500473 328.025600
   3676   3674   3677     1   110.5600475 386.601600
   3676   3674   3683     1   108.0100461 406.684800
   3677   3680   3681     1   109.5600471 388.275200
   3677   3680   3682     1   109.5600471 388.275200
   3678   3677   3680     1   109.8000471 387.438400
   3678   3677   3679     1   107.5800459 329.699200
   3679   3677   3680     1   109.8000471 387.438400
   3681   3680   3686     1   109.7800468 425.094400
   3681   3680   3682     1   108.4600466 328.025600
   3682   3680   3686     1   109.7800468 425.094400
   3684   3683   3685     1   108.3000464 339.740800
   3684   3683   3687     1   108.3000464 339.740800
   3685   3683   3687     1   108.3000464 339.740800
   3688   3691   3692     1   109.8000471 387.438400
   3688   3691   3693     1   109.8000471 387.438400
   3688   3697   3698     1   110.1100470 384.091200
   3688   3697   3699     1   110.1100470 384.091200
   3688   3697   3701     1   110.1100470 384.091200
   3689   3688   3691     1   110.5600475 386.601600
   3689   3688   3697     1   108.0100461 406.684800
   3689   3688   3690     1   109.7500473 328.025600
   3690   3688   3691     1   110.5600475 386.601600
   3690   3688   3697     1   108.0100461 406.684800
   3691   3694   3695     1   109.5600471 388.275200
   3691   3694   3696     1   109.5600471 388.275200
   3692   3691   3694     1   109.8000471 387.438400
   3692   3691   3693     1   107.5800459 329.699200
   3693   3691   3694     1   109.8000471 387.438400
   3695   3694   3700     1   109.7800468 425.094400
   3695   3694   3696     1   108.4600466 328.025600
   3696   3694   3700     1   109.7800468 425.094400
   3698   3697   3699     1   108.3000464 339.740800
   3698   3697   3701     1   108.3000464 339.740800
   3699   3697   3701     1   108.3000464 339.740800
   3702   3705   3706     1   109.8000471 387.438400
   3702   3705   3707     1   109.8000471 387.438400
   3702   3711   3712     1   110.1100470 384.091200
   3702   3711   3713     1   110.1100470 384.091200
   3702   3711   3715     1   110.1100470 384.091200
   3703   3702   3705     1   110.5600475 386.601600
   3703   3702   3711     1   108.0100461 406.684800
   3703   3702   3704     1   109.7500473 328.025600
   3704   3702   3705     1   110.5600475 386.601600
   3704   3702   3711     1   108.0100461 406.684800
   3705   3708   3709     1   109.5600471 388.275200
   3705   3708   3710     1   109.5600471 388.275200
   3706   3705   3708     1   109.8000471 387.438400
   3706   3705   3707     1   107.5800459 329.699200
   3707   3705   3708     1   109.8000471 387.438400
   3709   3708   3714     1   109.7800468 425.094400
   3709   3708   3710     1   108.4600466 328.025600
   3710   3708   3714     1   109.7800468 425.094400
   3712   3711   3713     1   108.3000464 339.740800
   3712   3711   3715     1   108.3000464 339.740800
   3713   3711   3715     1   108.3000464 339.740800
   3716   3719   3720     1   109.8000471 387.438400
   3716   3719   3721     1   109.8000471 387.438400
   3716   3725   3726     1   110.1100470 384.091200
   3716   3725   3727     1   110.1100470 384.091200
   3716   3725   3729     1   110.1100470 384.091200
   3717   3716   3719     1   110.5600475 386.601600
   3717   3716   3725     1   108.0100461 406.684800
   3717   3716   3718     1   109.7500473 328.025600
   3718   3716   3719     1   110.5600475 386.601600
   3718   3716   3725     1   108.0100461 406.684800
   3719   3722   3723     1   109.5600471 388.275200
   3719   3722   3724     1   109.5600471 388.275200
   3720   3719   3722     1   109.8000471 387.438400
   3720   3719   3721     1   107.5800459 329.699200
   3721   3719   3722     1   109.8000471 387.438400
   3723   3722   3728     1   109.7800468 425.094400
   3723   3722   3724     1   108.4600466 328.025600
   3724   3722   3728     1   109.7800468 425.094400
   3726   3725   3727     1   108.3000464 339.740800
   3726   3725   3729     1   108.3000464 339.740800
   3727   3725   3729     1   108.3000464 339.740800
   3730   3733   3734     1   109.8000471 387.438400
   3730   3733   3735     1   109.8000471 387.438400
   3730   3739   3740     1   110.1100470 384.091200
   3730   3739   3741     1   110.1100470 384.091200
   3730   3739   3743     1   110.1100470 384.091200
   3731   3730   3733     1   110.5600475 386.601600
   3731   3730   3739     1   108.0100461 406.684800
   3731   3730   3732     1   109.7500473 328.025600
   3732   3730   3733     1   110.5600475 386.601600
   3732   3730   3739     1   108.0100461 406.684800
   3733   3736   3737     1   109.5600471 388.275200
   3733   3736   3738     1   109.5600471 388.275200
   3734   3733   3736     1   109.8000471 387.438400
   3734   3733   3735     1   107.5800459 329.699200
   3735   3733   3736     1   109.8000471 387.438400
   3737   3736   3742     1   109.7800468 425.094400
   3737   3736   3738     1   108.4600466 328.025600
   3738   3736   3742     1   109.7800468 425.094400
   3740   3739   3741     1   108.3000464 339.740800
   3740   3739   3743     1   108.3000464 339.740800
   3741   3739   3743     1   108.3000464 339.740800
   3744   3747   3748     1   109.8000471 387.438400
   3744   3747   3749     1   109.8000471 387.438400
   3744   3753   3754     1   110.1100470 384.091200
   3744   3753   3755     1   110.1100470 384.091200
   3744   3753   3757     1   110.1100470 384.091200
   3745   3744   3747     1   110.5600475 386.601600
   3745   3744   3753     1   108.0100461 406.684800
   3745   3744   3746     1   109.7500473 328.025600
   3746   3744   3747     1   110.5600475 386.601600
   3746   3744   3753     1   108.0100461 406.684800
   3747   3750   3751     1   109.5600471 388.275200
   3747   3750   3752     1   109.5600471 388.275200
   3748   3747   3750     1   109.8000471 387.438400
   3748   3747   3749     1   107.5800459 329.699200
   3749   3747   3750     1   109.8000471 387.438400
   3751   3750   3756     1   109.7800468 425.094400
   3751   3750   3752     1   108.4600466 328.025600
   3752   3750   3756     1   109.7800468 425.094400
   3754   3753   3755     1   108.3000464 339.740800
   3754   3753   3757     1   108.3000464 339.740800
   3755   3753   3757     1   108.3000464 339.740800
   3758   3761   3762     1   109.8000471 387.438400
   3758   3761   3763     1   109.8000471 387.438400
   3758   3767   3768     1   110.1100470 384.091200
   3758   3767   3769     1   110.1100470 384.091200
   3758   3767   3771     1   110.1100470 384.091200
   3759   3758   3761     1   110.5600475 386.601600
   3759   3758   3767     1   108.0100461 406.684800
   3759   3758   3760     1   109.7500473 328.025600
   3760   3758   3761     1   110.5600475 386.601600
   3760   3758   3767     1   108.0100461 406.684800
   3761   3764   3765     1   109.5600471 388.275200
   3761   3764   3766     1   109.5600471 388.275200
   3762   3761   3764     1   109.8000471 387.438400
   3762   3761   3763     1   107.5800459 329.699200
   3763   3761   3764     1   109.8000471 387.438400
   3765   3764   3770     1   109.7800468 425.094400
   3765   3764   3766     1   108.4600466 328.025600
   3766   3764   3770     1   109.7800468 425.094400
   3768   3767   3769     1   108.3000464 339.740800
   3768   3767   3771     1   108.3000464 339.740800
   3769   3767   3771     1   108.3000464 339.740800
   3772   3775   3776     1   109.8000471 387.438400
   3772   3775   3777     1   109.8000471 387.438400
   3772   3781   3782     1   110.1100470 384.091200
   3772   3781   3783     1   110.1100470 384.091200
   3772   3781   3785     1   110.1100470 384.091200
   3773   3772   3775     1   110.5600475 386.601600
   3773   3772   3781     1   108.0100461 406.684800
   3773   3772   3774     1   109.7500473 328.025600
   3774   3772   3775     1   110.5600475 386.601600
   3774   3772   3781     1   108.0100461 406.684800
   3775   3778   3779     1   109.5600471 388.275200
   3775   3778   3780     1   109.5600471 388.275200
   3776   3775   3778     1   109.8000471 387.438400
   3776   3775   3777     1   107.5800459 329.699200
   3777   3775   3778     1   109.8000471 387.438400
   3779   3778   3784     1   109.7800468 425.094400
   3779   3778   3780     1   108.4600466 328.025600
   3780   3778   3784     1   109.7800468 425.094400
   3782   3781   3783     1   108.3000464 339.740800
   3782   3781   3785     1   108.3000464 339.740800
   3783   3781   3785     1   108.3000464 339.740800
   3786   3789   3790     1   109.8000471 387.438400
   3786   3789   3791     1   109.8000471 387.438400
   3786   3795   3796     1   110.1100470 384.091200
   3786   3795   3797     1   110.1100470 384.091200
   3786   3795   3799     1   110.1100470 384.091200
   3787   3786   3789     1   110.5600475 386.601600
   3787   3786   3795     1   108.0100461 406.684800
   3787   3786   3788     1   109.7500473 328.025600
   3788   3786   3789     1   110.5600475 386.601600
   3788   3786   3795     1   108.0100461 406.684800
   3789   3792   3793     1   109.5600471 388.275200
   3789   3792   3794     1   109.5600471 388.275200
   3790   3789   3792     1   109.8000471 387.438400
   3790   3789   3791     1   107.5800459 329.699200
   3791   3789   3792     1   109.8000471 387.438400
   3793   3792   3798     1   109.7800468 425.094400
   3793   3792   3794     1   108.4600466 328.025600
   3794   3792   3798     1   109.7800468 425.094400
   3796   3795   3797     1   108.3000464 339.740800
   3796   3795   3799     1   108.3000464 339.740800
   3797   3795   3799     1   108.3000464 339.740800
   3800   3803   3804     1   109.8000471 387.438400
   3800   3803   3805     1   109.8000471 387.438400
   3800   3809   3810     1   110.1100470 384.091200
   3800   3809   3811     1   110.1100470 384.091200
   3800   3809   3813     1   110.1100470 384.091200
   3801   3800   3803     1   110.5600475 386.601600
   3801   3800   3809     1   108.0100461 406.684800
   3801   3800   3802     1   109.7500473 328.025600
   3802   3800   3803     1   110.5600475 386.601600
   3802   3800   3809     1   108.0100461 406.684800
   3803   3806   3807     1   109.5600471 388.275200
   3803   3806   3808     1   109.5600471 388.275200
   3804   3803   3806     1   109.8000471 387.438400
   3804   3803   3805     1   107.5800459 329.699200
   3805   3803   3806     1   109.8000471 387.438400
   3807   3806   3812     1   109.7800468 425.094400
   3807   3806   3808     1   108.4600466 328.025600
   3808   3806   3812     1   109.7800468 425.094400
   3810   3809   3811     1   108.3000464 339.740800
   3810   3809   3813     1   108.3000464 339.740800
   3811   3809   3813     1   108.3000464 339.740800
   3814   3817   3818     1   109.8000471 387.438400
   3814   3817   3819     1   109.8000471 387.438400
   3814   3823   3824     1   110.1100470 384.091200
   3814   3823   3825     1   110.1100470 384.091200
   3814   3823   3827     1   110.1100470 384.091200
   3815   3814   3817     1   110.5600475 386.601600
   3815   3814   3823     1   108.0100461 406.684800
   3815   3814   3816     1   109.7500473 328.025600
   3816   3814   3817     1   110.5600475 386.601600
   3816   3814   3823     1   108.0100461 406.684800
   3817   3820   3821     1   109.5600471 388.275200
   3817   3820   3822     1   109.5600471 388.275200
   3818   3817   3820     1   109.8000471 387.438400
   3818   3817   3819     1   107.5800459 329.699200
   3819   3817   3820     1   109.8000471 387.438400
   3821   3820   3826     1   109.7800468 425.094400
   3821   3820   3822     1   108.4600466 328.025600
   3822   3820   3826     1   109.7800468 425.094400
   3824   3823   3825     1   108.3000464 339.740800
   3824   3823   3827     1   108.3000464 339.740800
   3825   3823   3827     1   108.3000464 339.740800
   3828   3831   3832     1   109.8000471 387.438400
   3828   3831   3833     1   109.8000471 387.438400
   3828   3837   3838     1   110.1100470 384.091200
   3828   3837   3839     1   110.1100470 384.091200
   3828   3837   3841     1   110.1100470 384.091200
   3829   3828   3831     1   110.5600475 386.601600
   3829   3828   3837     1   108.0100461 406.684800
   3829   3828   3830     1   109.7500473 328.025600
   3830   3828   3831     1   110.5600475 386.601600
   3830   3828   3837     1   108.0100461 406.684800
   3831   3834   3835     1   109.5600471 388.275200
   3831   3834   3836     1   109.5600471 388.275200
   3832   3831   3834     1   109.8000471 387.438400
   3832   3831   3833     1   107.5800459 329.699200
   3833   3831   3834     1   109.8000471 387.438400
   3835   3834   3840     1   109.7800468 425.094400
   3835   3834   3836     1   108.4600466 328.025600
   3836   3834   3840     1   109.7800468 425.094400
   3838   3837   3839     1   108.3000464 339.740800
   3838   3837   3841     1   108.3000464 339.740800
   3839   3837   3841     1   108.3000464 339.740800
   3842   3845   3846     1   109.8000471 387.438400
   3842   3845   3847     1   109.8000471 387.438400
   3842   3851   3852     1   110.1100470 384.091200
   3842   3851   3853     1   110.1100470 384.091200
   3842   3851   3855     1   110.1100470 384.091200
   3843   3842   3845     1   110.5600475 386.601600
   3843   3842   3851     1   108.0100461 406.684800
   3843   3842   3844     1   109.7500473 328.025600
   3844   3842   3845     1   110.5600475 386.601600
   3844   3842   3851     1   108.0100461 406.684800
   3845   3848   3849     1   109.5600471 388.275200
   3845   3848   3850     1   109.5600471 388.275200
   3846   3845   3848     1   109.8000471 387.438400
   3846   3845   3847     1   107.5800459 329.699200
   3847   3845   3848     1   109.8000471 387.438400
   3849   3848   3854     1   109.7800468 425.094400
   3849   3848   3850     1   108.4600466 328.025600
   3850   3848   3854     1   109.7800468 425.094400
   3852   3851   3853     1   108.3000464 339.740800
   3852   3851   3855     1   108.3000464 339.740800
   3853   3851   3855     1   108.3000464 339.740800
   3856   3859   3860     1   109.8000471 387.438400
   3856   3859   3861     1   109.8000471 387.438400
   3856   3865   3866     1   110.1100470 384.091200
   3856   3865   3867     1   110.1100470 384.091200
   3856   3865   3869     1   110.1100470 384.091200
   3857   3856   3859     1   110.5600475 386.601600
   3857   3856   3865     1   108.0100461 406.684800
   3857   3856   3858     1   109.7500473 328.025600
   3858   3856   3859     1   110.5600475 386.601600
   3858   3856   3865     1   108.0100461 406.684800
   3859   3862   3863     1   109.5600471 388.275200
   3859   3862   3864     1   109.5600471 388.275200
   3860   3859   3862     1   109.8000471 387.438400
   3860   3859   3861     1   107.5800459 329.699200
   3861   3859   3862     1   109.8000471 387.438400
   3863   3862   3868     1   109.7800468 425.094400
   3863   3862   3864     1   108.4600466 328.025600
   3864   3862   3868     1   109.7800468 425.094400
   3866   3865   3867     1   108.3000464 339.740800
   3866   3865   3869     1   108.3000464 339.740800
   3867   3865   3869     1   108.3000464 339.740800
   3870   3873   3874     1   109.8000471 387.438400
   3870   3873   3875     1   109.8000471 387.438400
   3870   3879   3880     1   110.1100470 384.091200
   3870   3879   3881     1   110.1100470 384.091200
   3870   3879   3883     1   110.1100470 384.091200
   3871   3870   3873     1   110.5600475 386.601600
   3871   3870   3879     1   108.0100461 406.684800
   3871   3870   3872     1   109.7500473 328.025600
   3872   3870   3873     1   110.5600475 386.601600
   3872   3870   3879     1   108.0100461 406.684800
   3873   3876   3877     1   109.5600471 388.275200
   3873   3876   3878     1   109.5600471 388.275200
   3874   3873   3876     1   109.8000471 387.438400
   3874   3873   3875     1   107.5800459 329.699200
   3875   3873   3876     1   109.8000471 387.438400
   3877   3876   3882     1   109.7800468 425.094400
   3877   3876   3878     1   108.4600466 328.025600
   3878   3876   3882     1   109.7800468 425.094400
   3880   3879   3881     1   108.3000464 339.740800
   3880   3879   3883     1   108.3000464 339.740800
   3881   3879   3883     1   108.3000464 339.740800
   3884   3887   3888     1   109.8000471 387.438400
   3884   3887   3889     1   109.8000471 387.438400
   3884   3893   3894     1   110.1100470 384.091200
   3884   3893   3895     1   110.1100470 384.091200
   3884   3893   3897     1   110.1100470 384.091200
   3885   3884   3887     1   110.5600475 386.601600
   3885   3884   3893     1   108.0100461 406.684800
   3885   3884   3886     1   109.7500473 328.025600
   3886   3884   3887     1   110.5600475 386.601600
   3886   3884   3893     1   108.0100461 406.684800
   3887   3890   3891     1   109.5600471 388.275200
   3887   3890   3892     1   109.5600471 388.275200
   3888   3887   3890     1   109.8000471 387.438400
   3888   3887   3889     1   107.5800459 329.699200
   3889   3887   3890     1   109.8000471 387.438400
   3891   3890   3896     1   109.7800468 425.094400
   3891   3890   3892     1   108.4600466 328.025600
   3892   3890   3896     1   109.7800468 425.094400
   3894   3893   3895     1   108.3000464 339.740800
   3894   3893   3897     1   108.3000464 339.740800
   3895   3893   3897     1   108.3000464 339.740800
   3898   3901   3902     1   109.8000471 387.438400
   3898   3901   3903     1   109.8000471 387.438400
   3898   3907   3908     1   110.1100470 384.091200
   3898   3907   3909     1   110.1100470 384.091200
   3898   3907   3911     1   110.1100470 384.091200
   3899   3898   3901     1   110.5600475 386.601600
   3899   3898   3907     1   108.0100461 406.684800
   3899   3898   3900     1   109.7500473 328.025600
   3900   3898   3901     1   110.5600475 386.601600
   3900   3898   3907     1   108.0100461 406.684800
   3901   3904   3905     1   109.5600471 388.275200
   3901   3904   3906     1   109.5600471 388.275200
   3902   3901   3904     1   109.8000471 387.438400
   3902   3901   3903     1   107.5800459 329.699200
   3903   3901   3904     1   109.8000471 387.438400
   3905   3904   3910     1   109.7800468 425.094400
   3905   3904   3906     1   108.4600466 328.025600
   3906   3904   3910     1   109.7800468 425.094400
   3908   3907   3909     1   108.3000464 339.740800
   3908   3907   3911     1   108.3000464 339.740800
   3909   3907   3911     1   108.3000464 339.740800
   3912   3915   3916     1   109.8000471 387.438400
   3912   3915   3917     1   109.8000471 387.438400
   3912   3921   3922     1   110.1100470 384.091200
   3912   3921   3923     1   110.1100470 384.091200
   3912   3921   3925     1   110.1100470 384.091200
   3913   3912   3915     1   110.5600475 386.601600
   3913   3912   3921     1   108.0100461 406.684800
   3913   3912   3914     1   109.7500473 328.025600
   3914   3912   3915     1   110.5600475 386.601600
   3914   3912   3921     1   108.0100461 406.684800
   3915   3918   3919     1   109.5600471 388.275200
   3915   3918   3920     1   109.5600471 388.275200
   3916   3915   3918     1   109.8000471 387.438400
   3916   3915   3917     1   107.5800459 329.699200
   3917   3915   3918     1   109.8000471 387.438400
   3919   3918   3924     1   109.7800468 425.094400
   3919   3918   3920     1   108.4600466 328.025600
   3920   3918   3924     1   109.7800468 425.094400
   3922   3921   3923     1   108.3000464 339.740800
   3922   3921   3925     1   108.3000464 339.740800
   3923   3921   3925     1   108.3000464 339.740800
   3926   3929   3930     1   109.8000471 387.438400
   3926   3929   3931     1   109.8000471 387.438400
   3926   3935   3936     1   110.1100470 384.091200
   3926   3935   3937     1   110.1100470 384.091200
   3926   3935   3939     1   110.1100470 384.091200
   3927   3926   3929     1   110.5600475 386.601600
   3927   3926   3935     1   108.0100461 406.684800
   3927   3926   3928     1   109.7500473 328.025600
   3928   3926   3929     1   110.5600475 386.601600
   3928   3926   3935     1   108.0100461 406.684800
   3929   3932   3933     1   109.5600471 388.275200
   3929   3932   3934     1   109.5600471 388.275200
   3930   3929   3932     1   109.8000471 387.438400
   3930   3929   3931     1   107.5800459 329.699200
   3931   3929   3932     1   109.8000471 387.438400
   3933   3932   3938     1   109.7800468 425.094400
   3933   3932   3934     1   108.4600466 328.025600
   3934   3932   3938     1   109.7800468 425.094400
   3936   3935   3937     1   108.3000464 339.740800
   3936   3935   3939     1   108.3000464 339.740800
   3937   3935   3939     1   108.3000464 339.740800
   3940   3943   3944     1   109.8000471 387.438400
   3940   3943   3945     1   109.8000471 387.438400
   3940   3949   3950     1   110.1100470 384.091200
   3940   3949   3951     1   110.1100470 384.091200
   3940   3949   3953     1   110.1100470 384.091200
   3941   3940   3943     1   110.5600475 386.601600
   3941   3940   3949     1   108.0100461 406.684800
   3941   3940   3942     1   109.7500473 328.025600
   3942   3940   3943     1   110.5600475 386.601600
   3942   3940   3949     1   108.0100461 406.684800
   3943   3946   3947     1   109.5600471 388.275200
   3943   3946   3948     1   109.5600471 388.275200
   3944   3943   3946     1   109.8000471 387.438400
   3944   3943   3945     1   107.5800459 329.699200
   3945   3943   3946     1   109.8000471 387.438400
   3947   3946   3952     1   109.7800468 425.094400
   3947   3946   3948     1   108.4600466 328.025600
   3948   3946   3952     1   109.7800468 425.094400
   3950   3949   3951     1   108.3000464 339.740800
   3950   3949   3953     1   108.3000464 339.740800
   3951   3949   3953     1   108.3000464 339.740800
   3954   3957   3958     1   109.8000471 387.438400
   3954   3957   3959     1   109.8000471 387.438400
   3954   3963   3964     1   110.1100470 384.091200
   3954   3963   3965     1   110.1100470 384.091200
   3954   3963   3967     1   110.1100470 384.091200
   3955   3954   3957     1   110.5600475 386.601600
   3955   3954   3963     1   108.0100461 406.684800
   3955   3954   3956     1   109.7500473 328.025600
   3956   3954   3957     1   110.5600475 386.601600
   3956   3954   3963     1   108.0100461 406.684800
   3957   3960   3961     1   109.5600471 388.275200
   3957   3960   3962     1   109.5600471 388.275200
   3958   3957   3960     1   109.8000471 387.438400
   3958   3957   3959     1   107.5800459 329.699200
   3959   3957   3960     1   109.8000471 387.438400
   3961   3960   3966     1   109.7800468 425.094400
   3961   3960   3962     1   108.4600466 328.025600
   3962   3960   3966     1   109.7800468 425.094400
   3964   3963   3965     1   108.3000464 339.740800
   3964   3963   3967     1   108.3000464 339.740800
   3965   3963   3967     1   108.3000464 339.740800
   3968   3971   3972     1   109.8000471 387.438400
   3968   3971   3973     1   109.8000471 387.438400
   3968   3977   3978     1   110.1100470 384.091200
   3968   3977   3979     1   110.1100470 384.091200
   3968   3977   3981     1   110.1100470 384.091200
   3969   3968   3971     1   110.5600475 386.601600
   3969   3968   3977     1   108.0100461 406.684800
   3969   3968   3970     1   109.7500473 328.025600
   3970   3968   3971     1   110.5600475 386.601600
   3970   3968   3977     1   108.0100461 406.684800
   3971   3974   3975     1   109.5600471 388.275200
   3971   3974   3976     1   109.5600471 388.275200
   3972   3971   3974     1   109.8000471 387.438400
   3972   3971   3973     1   107.5800459 329.699200
   3973   3971   3974     1   109.8000471 387.438400
   3975   3974   3980     1   109.7800468 425.094400
   3975   3974   3976     1   108.4600466 328.025600
   3976   3974   3980     1   109.7800468 425.094400
   3978   3977   3979     1   108.3000464 339.740800
   3978   3977   3981     1   108.3000464 339.740800
   3979   3977   3981     1   108.3000464 339.740800
   3982   3985   3986     1   109.8000471 387.438400
   3982   3985   3987     1   109.8000471 387.438400
   3982   3991   3992     1   110.1100470 384.091200
   3982   3991   3993     1   110.1100470 384.091200
   3982   3991   3995     1   110.1100470 384.091200
   3983   3982   3985     1   110.5600475 386.601600
   3983   3982   3991     1   108.0100461 406.684800
   3983   3982   3984     1   109.7500473 328.025600
   3984   3982   3985     1   110.5600475 386.601600
   3984   3982   3991     1   108.0100461 406.684800
   3985   3988   3989     1   109.5600471 388.275200
   3985   3988   3990     1   109.5600471 388.275200
   3986   3985   3988     1   109.8000471 387.438400
   3986   3985   3987     1   107.5800459 329.699200
   3987   3985   3988     1   109.8000471 387.438400
   3989   3988   3994     1   109.7800468 425.094400
   3989   3988   3990     1   108.4600466 328.025600
   3990   3988   3994     1   109.7800468 425.094400
   3992   3991   3993     1   108.3000464 339.740800
   3992   3991   3995     1   108.3000464 339.740800
   3993   3991   3995     1   108.3000464 339.740800
   3996   3999   4000     1   109.8000471 387.438400
   3996   3999   4001     1   109.8000471 387.438400
   3996   4005   4006     1   110.1100470 384.091200
   3996   4005   4007     1   110.1100470 384.091200
   3996   4005   4009     1   110.1100470 384.091200
   3997   3996   3999     1   110.5600475 386.601600
   3997   3996   4005     1   108.0100461 406.684800
   3997   3996   3998     1   109.7500473 328.025600
   3998   3996   3999     1   110.5600475 386.601600
   3998   3996   4005     1   108.0100461 406.684800
   3999   4002   4003     1   109.5600471 388.275200
   3999   4002   4004     1   109.5600471 388.275200
   4000   3999   4002     1   109.8000471 387.438400
   4000   3999   4001     1   107.5800459 329.699200
   4001   3999   4002     1   109.8000471 387.438400
   4003   4002   4008     1   109.7800468 425.094400
   4003   4002   4004     1   108.4600466 328.025600
   4004   4002   4008     1   109.7800468 425.094400
   4006   4005   4007     1   108.3000464 339.740800
   4006   4005   4009     1   108.3000464 339.740800
   4007   4005   4009     1   108.3000464 339.740800
   4010   4013   4014     1   109.8000471 387.438400
   4010   4013   4015     1   109.8000471 387.438400
   4010   4019   4020     1   110.1100470 384.091200
   4010   4019   4021     1   110.1100470 384.091200
   4010   4019   4023     1   110.1100470 384.091200
   4011   4010   4013     1   110.5600475 386.601600
   4011   4010   4019     1   108.0100461 406.684800
   4011   4010   4012     1   109.7500473 328.025600
   4012   4010   4013     1   110.5600475 386.601600
   4012   4010   4019     1   108.0100461 406.684800
   4013   4016   4017     1   109.5600471 388.275200
   4013   4016   4018     1   109.5600471 388.275200
   4014   4013   4016     1   109.8000471 387.438400
   4014   4013   4015     1   107.5800459 329.699200
   4015   4013   4016     1   109.8000471 387.438400
   4017   4016   4022     1   109.7800468 425.094400
   4017   4016   4018     1   108.4600466 328.025600
   4018   4016   4022     1   109.7800468 425.094400
   4020   4019   4021     1   108.3000464 339.740800
   4020   4019   4023     1   108.3000464 339.740800
   4021   4019   4023     1   108.3000464 339.740800
   4024   4027   4028     1   109.8000471 387.438400
   4024   4027   4029     1   109.8000471 387.438400
   4024   4033   4034     1   110.1100470 384.091200
   4024   4033   4035     1   110.1100470 384.091200
   4024   4033   4037     1   110.1100470 384.091200
   4025   4024   4027     1   110.5600475 386.601600
   4025   4024   4033     1   108.0100461 406.684800
   4025   4024   4026     1   109.7500473 328.025600
   4026   4024   4027     1   110.5600475 386.601600
   4026   4024   4033     1   108.0100461 406.684800
   4027   4030   4031     1   109.5600471 388.275200
   4027   4030   4032     1   109.5600471 388.275200
   4028   4027   4030     1   109.8000471 387.438400
   4028   4027   4029     1   107.5800459 329.699200
   4029   4027   4030     1   109.8000471 387.438400
   4031   4030   4036     1   109.7800468 425.094400
   4031   4030   4032     1   108.4600466 328.025600
   4032   4030   4036     1   109.7800468 425.094400
   4034   4033   4035     1   108.3000464 339.740800
   4034   4033   4037     1   108.3000464 339.740800
   4035   4033   4037     1   108.3000464 339.740800
   4038   4041   4042     1   109.8000471 387.438400
   4038   4041   4043     1   109.8000471 387.438400
   4038   4047   4048     1   110.1100470 384.091200
   4038   4047   4049     1   110.1100470 384.091200
   4038   4047   4051     1   110.1100470 384.091200
   4039   4038   4041     1   110.5600475 386.601600
   4039   4038   4047     1   108.0100461 406.684800
   4039   4038   4040     1   109.7500473 328.025600
   4040   4038   4041     1   110.5600475 386.601600
   4040   4038   4047     1   108.0100461 406.684800
   4041   4044   4045     1   109.5600471 388.275200
   4041   4044   4046     1   109.5600471 388.275200
   4042   4041   4044     1   109.8000471 387.438400
   4042   4041   4043     1   107.5800459 329.699200
   4043   4041   4044     1   109.8000471 387.438400
   4045   4044   4050     1   109.7800468 425.094400
   4045   4044   4046     1   108.4600466 328.025600
   4046   4044   4050     1   109.7800468 425.094400
   4048   4047   4049     1   108.3000464 339.740800
   4048   4047   4051     1   108.3000464 339.740800
   4049   4047   4051     1   108.3000464 339.740800
   4052   4055   4056     1   109.8000471 387.438400
   4052   4055   4057     1   109.8000471 387.438400
   4052   4061   4062     1   110.1100470 384.091200
   4052   4061   4063     1   110.1100470 384.091200
   4052   4061   4065     1   110.1100470 384.091200
   4053   4052   4055     1   110.5600475 386.601600
   4053   4052   4061     1   108.0100461 406.684800
   4053   4052   4054     1   109.7500473 328.025600
   4054   4052   4055     1   110.5600475 386.601600
   4054   4052   4061     1   108.0100461 406.684800
   4055   4058   4059     1   109.5600471 388.275200
   4055   4058   4060     1   109.5600471 388.275200
   4056   4055   4058     1   109.8000471 387.438400
   4056   4055   4057     1   107.5800459 329.699200
   4057   4055   4058     1   109.8000471 387.438400
   4059   4058   4064     1   109.7800468 425.094400
   4059   4058   4060     1   108.4600466 328.025600
   4060   4058   4064     1   109.7800468 425.094400
   4062   4061   4063     1   108.3000464 339.740800
   4062   4061   4065     1   108.3000464 339.740800
   4063   4061   4065     1   108.3000464 339.740800
   4066   4069   4070     1   109.8000471 387.438400
   4066   4069   4071     1   109.8000471 387.438400
   4066   4075   4076     1   110.1100470 384.091200
   4066   4075   4077     1   110.1100470 384.091200
   4066   4075   4079     1   110.1100470 384.091200
   4067   4066   4069     1   110.5600475 386.601600
   4067   4066   4075     1   108.0100461 406.684800
   4067   4066   4068     1   109.7500473 328.025600
   4068   4066   4069     1   110.5600475 386.601600
   4068   4066   4075     1   108.0100461 406.684800
   4069   4072   4073     1   109.5600471 388.275200
   4069   4072   4074     1   109.5600471 388.275200
   4070   4069   4072     1   109.8000471 387.438400
   4070   4069   4071     1   107.5800459 329.699200
   4071   4069   4072     1   109.8000471 387.438400
   4073   4072   4078     1   109.7800468 425.094400
   4073   4072   4074     1   108.4600466 328.025600
   4074   4072   4078     1   109.7800468 425.094400
   4076   4075   4077     1   108.3000464 339.740800
   4076   4075   4079     1   108.3000464 339.740800
   4077   4075   4079     1   108.3000464 339.740800
   4080   4083   4084     1   109.8000471 387.438400
   4080   4083   4085     1   109.8000471 387.438400
   4080   4089   4090     1   110.1100470 384.091200
   4080   4089   4091     1   110.1100470 384.091200
   4080   4089   4093     1   110.1100470 384.091200
   4081   4080   4083     1   110.5600475 386.601600
   4081   4080   4089     1   108.0100461 406.684800
   4081   4080   4082     1   109.7500473 328.025600
   4082   4080   4083     1   110.5600475 386.601600
   4082   4080   4089     1   108.0100461 406.684800
   4083   4086   4087     1   109.5600471 388.275200
   4083   4086   4088     1   109.5600471 388.275200
   4084   4083   4086     1   109.8000471 387.438400
   4084   4083   4085     1   107.5800459 329.699200
   4085   4083   4086     1   109.8000471 387.438400
   4087   4086   4092     1   109.7800468 425.094400
   4087   4086   4088     1   108.4600466 328.025600
   4088   4086   4092     1   109.7800468 425.094400
   4090   4089   4091     1   108.3000464 339.740800
   4090   4089   4093     1   108.3000464 339.740800
   4091   4089   4093     1   108.3000464 339.740800
   4094   4097   4098     1   109.8000471 387.438400
   4094   4097   4099     1   109.8000471 387.438400
   4094   4103   4104     1   110.1100470 384.091200
   4094   4103   4105     1   110.1100470 384.091200
   4094   4103   4107     1   110.1100470 384.091200
   4095   4094   4097     1   110.5600475 386.601600
   4095   4094   4103     1   108.0100461 406.684800
   4095   4094   4096     1   109.7500473 328.025600
   4096   4094   4097     1   110.5600475 386.601600
   4096   4094   4103     1   108.0100461 406.684800
   4097   4100   4101     1   109.5600471 388.275200
   4097   4100   4102     1   109.5600471 388.275200
   4098   4097   4100     1   109.8000471 387.438400
   4098   4097   4099     1   107.5800459 329.699200
   4099   4097   4100     1   109.8000471 387.438400
   4101   4100   4106     1   109.7800468 425.094400
   4101   4100   4102     1   108.4600466 328.025600
   4102   4100   4106     1   109.7800468 425.094400
   4104   4103   4105     1   108.3000464 339.740800
   4104   4103   4107     1   108.3000464 339.740800
   4105   4103   4107     1   108.3000464 339.740800
   4108   4111   4112     1   109.8000471 387.438400
   4108   4111   4113     1   109.8000471 387.438400
   4108   4117   4118     1   110.1100470 384.091200
   4108   4117   4119     1   110.1100470 384.091200
   4108   4117   4121     1   110.1100470 384.091200
   4109   4108   4111     1   110.5600475 386.601600
   4109   4108   4117     1   108.0100461 406.684800
   4109   4108   4110     1   109.7500473 328.025600
   4110   4108   4111     1   110.5600475 386.601600
   4110   4108   4117     1   108.0100461 406.684800
   4111   4114   4115     1   109.5600471 388.275200
   4111   4114   4116     1   109.5600471 388.275200
   4112   4111   4114     1   109.8000471 387.438400
   4112   4111   4113     1   107.5800459 329.699200
   4113   4111   4114     1   109.8000471 387.438400
   4115   4114   4120     1   109.7800468 425.094400
   4115   4114   4116     1   108.4600466 328.025600
   4116   4114   4120     1   109.7800468 425.094400
   4118   4117   4119     1   108.3000464 339.740800
   4118   4117   4121     1   108.3000464 339.740800
   4119   4117   4121     1   108.3000464 339.740800
   4122   4125   4126     1   109.8000471 387.438400
   4122   4125   4127     1   109.8000471 387.438400
   4122   4131   4132     1   110.1100470 384.091200
   4122   4131   4133     1   110.1100470 384.091200
   4122   4131   4135     1   110.1100470 384.091200
   4123   4122   4125     1   110.5600475 386.601600
   4123   4122   4131     1   108.0100461 406.684800
   4123   4122   4124     1   109.7500473 328.025600
   4124   4122   4125     1   110.5600475 386.601600
   4124   4122   4131     1   108.0100461 406.684800
   4125   4128   4129     1   109.5600471 388.275200
   4125   4128   4130     1   109.5600471 388.275200
   4126   4125   4128     1   109.8000471 387.438400
   4126   4125   4127     1   107.5800459 329.699200
   4127   4125   4128     1   109.8000471 387.438400
   4129   4128   4134     1   109.7800468 425.094400
   4129   4128   4130     1   108.4600466 328.025600
   4130   4128   4134     1   109.7800468 425.094400
   4132   4131   4133     1   108.3000464 339.740800
   4132   4131   4135     1   108.3000464 339.740800
   4133   4131   4135     1   108.3000464 339.740800
   4136   4139   4140     1   109.8000471 387.438400
   4136   4139   4141     1   109.8000471 387.438400
   4136   4145   4146     1   110.1100470 384.091200
   4136   4145   4147     1   110.1100470 384.091200
   4136   4145   4149     1   110.1100470 384.091200
   4137   4136   4139     1   110.5600475 386.601600
   4137   4136   4145     1   108.0100461 406.684800
   4137   4136   4138     1   109.7500473 328.025600
   4138   4136   4139     1   110.5600475 386.601600
   4138   4136   4145     1   108.0100461 406.684800
   4139   4142   4143     1   109.5600471 388.275200
   4139   4142   4144     1   109.5600471 388.275200
   4140   4139   4142     1   109.8000471 387.438400
   4140   4139   4141     1   107.5800459 329.699200
   4141   4139   4142     1   109.8000471 387.438400
   4143   4142   4148     1   109.7800468 425.094400
   4143   4142   4144     1   108.4600466 328.025600
   4144   4142   4148     1   109.7800468 425.094400
   4146   4145   4147     1   108.3000464 339.740800
   4146   4145   4149     1   108.3000464 339.740800
   4147   4145   4149     1   108.3000464 339.740800
   4150   4153   4154     1   109.8000471 387.438400
   4150   4153   4155     1   109.8000471 387.438400
   4150   4159   4160     1   110.1100470 384.091200
   4150   4159   4161     1   110.1100470 384.091200
   4150   4159   4163     1   110.1100470 384.091200
   4151   4150   4153     1   110.5600475 386.601600
   4151   4150   4159     1   108.0100461 406.684800
   4151   4150   4152     1   109.7500473 328.025600
   4152   4150   4153     1   110.5600475 386.601600
   4152   4150   4159     1   108.0100461 406.684800
   4153   4156   4157     1   109.5600471 388.275200
   4153   4156   4158     1   109.5600471 388.275200
   4154   4153   4156     1   109.8000471 387.438400
   4154   4153   4155     1   107.5800459 329.699200
   4155   4153   4156     1   109.8000471 387.438400
   4157   4156   4162     1   109.7800468 425.094400
   4157   4156   4158     1   108.4600466 328.025600
   4158   4156   4162     1   109.7800468 425.094400
   4160   4159   4161     1   108.3000464 339.740800
   4160   4159   4163     1   108.3000464 339.740800
   4161   4159   4163     1   108.3000464 339.740800

[ dihedrals ]
;    ai     aj     ak     al funct         c0         c1         c2         c3         c4         c5
      1      2     14     26     1  0.0000000  0.6508444  3
      1      5     17     20     1  0.0000000  0.6508444  3
      1      8     11     23     1  0.0000000  0.6508444  3
      2      1      5     17     1  0.0000000  0.6508444  3
      2      1      8     11     1  0.0000000  0.6508444  3
      2     14     26    118     1  0.0000000  0.6508444  3
      5      1      2     14     1  0.0000000  0.6508444  3
      5      1      8     11     1  0.0000000  0.6508444  3
      5     17     20     58     1  0.0000000  0.6508444  3
      8      1      2     14     1  0.0000000  0.6508444  3
      8      1      5     17     1  0.0000000  0.6508444  3
      8     11     23     88     1  0.0000000  0.6508444  3
     11     23     88     79     1  180.0000771  0.4184000  2
     11     23     88     79     1  0.0000000  1.6024720  3
     14     26    118    109     1  180.0000771  0.4184000  2
     14     26    118    109     1  0.0000000  1.6024720  3
     17     20     58     49     1  180.0000771  0.4184000  2
     17     20     58     49     1  0.0000000  1.6024720  3
     20     58     49     40     1  180.0000771  0.4184000  2
     20     58     49     40     1  0.0000000  1.6024720  3
     23     88     79     70     1  180.0000771  0.4184000  2
     23     88     79     70     1  0.0000000  1.6024720  3
     26    118    109    100     1  180.0000771  0.4184000  2
     26    118    109    100     1  0.0000000  1.6024720  3
     30     31     43     55     1  0.0000000  0.6508444  3
     30     34     46     52     1  0.0000000  0.6508444  3
     30     37     40     49     1  0.0000000  0.6508444  3
     31     30     34     46     1  0.0000000  0.6508444  3
     31     30     37     40     1  0.0000000  0.6508444  3
     31     43     55    178     1  0.0000000  0.6508444  3
     34     30     31     43     1  0.0000000  0.6508444  3
     34     30     37     40     1  0.0000000  0.6508444  3
     34     46     52    148     1  0.0000000  0.6508444  3
     37     30     31     43     1  0.0000000  0.6508444  3
     37     30     34     46     1  0.0000000  0.6508444  3
     37     40     49     58     1  0.0000000  0.6508444  3
     43     55    178    169     1  180.0000771  0.4184000  2
     43     55    178    169     1  0.0000000  1.6024720  3
     46     52    148    139     1  180.0000771  0.4184000  2
     46     52    148    139     1  0.0000000  1.6024720  3
     52    148    139    130     1  180.0000771  0.4184000  2
     52    148    139    130     1  0.0000000  1.6024720  3
     55    178    169    160     1  180.0000771  0.4184000  2
     55    178    169    160     1  0.0000000  1.6024720  3
     60     61     73     85     1  0.0000000  0.6508444  3
     60     64     76     82     1  0.0000000  0.6508444  3
     60     67     70     79     1  0.0000000  0.6508444  3
     61     60     64     76     1  0.0000000  0.6508444  3
     61     60     67     70     1  0.0000000  0.6508444  3
     61     73     85    238     1  0.0000000  0.6508444  3
     64     60     61     73     1  0.0000000  0.6508444  3
     64     60     67     70     1  0.0000000  0.6508444  3
     64     76     82    208     1  0.0000000  0.6508444  3
     67     60     61     73     1  0.0000000  0.6508444  3
     67     60     64     76     1  0.0000000  0.6508444  3
     67     70     79     88     1  0.0000000  0.6508444  3
     73     85    238    229     1  180.0000771  0.4184000  2
     73     85    238    229     1  0.0000000  1.6024720  3
     76     82    208    199     1  180.0000771  0.4184000  2
     76     82    208    199     1  0.0000000  1.6024720  3
     82    208    199    190     1  180.0000771  0.4184000  2
     82    208    199    190     1  0.0000000  1.6024720  3
     85    238    229    220     1  180.0000771  0.4184000  2
     85    238    229    220     1  0.0000000  1.6024720  3
     90     91    103    115     1  0.0000000  0.6508444  3
     90     94    106    112     1  0.0000000  0.6508444  3
     90     97    100    109     1  0.0000000  0.6508444  3
     91     90     94    106     1  0.0000000  0.6508444  3
     91     90     97    100     1  0.0000000  0.6508444  3
     91    103    115    298     1  0.0000000  0.6508444  3
     94     90     91    103     1  0.0000000  0.6508444  3
     94     90     97    100     1  0.0000000  0.6508444  3
     94    106    112    268     1  0.0000000  0.6508444  3
     97     90     91    103     1  0.0000000  0.6508444  3
     97     90     94    106     1  0.0000000  0.6508444  3
     97    100    109    118     1  0.0000000  0.6508444  3
    103    115    298    289     1  180.0000771  0.4184000  2
    103    115    298    289     1  0.0000000  1.6024720  3
    106    112    268    259     1  180.0000771  0.4184000  2
    106    112    268    259     1  0.0000000  1.6024720  3
    112    268    259    250     1  180.0000771  0.4184000  2
    112    268    259    250     1  0.0000000  1.6024720  3
    115    298    289    280     1  180.0000771  0.4184000  2
    115    298    289    280     1  0.0000000  1.6024720  3
    120    121    133    145     1  0.0000000  0.6508444  3
    120    124    136    142     1  0.0000000  0.6508444  3
    120    127    130    139     1  0.0000000  0.6508444  3
    121    120    124    136     1  0.0000000  0.6508444  3
    121    120    127    130     1  0.0000000  0.6508444  3
    121    133    145    358     1  0.0000000  0.6508444  3
    124    120    121    133     1  0.0000000  0.6508444  3
    124    120    127    130     1  0.0000000  0.6508444  3
    124    136    142    328     1  0.0000000  0.6508444  3
    127    120    121    133     1  0.0000000  0.6508444  3
    127    120    124    136     1  0.0000000  0.6508444  3
    127    130    139    148     1  0.0000000  0.6508444  3
    133    145    358    349     1  180.0000771  0.4184000  2
    133    145    358    349     1  0.0000000  1.6024720  3
    136    142    328    319     1  180.0000771  0.4184000  2
    136    142    328    319     1  0.0000000  1.6024720  3
    142    328    319    310     1  180.0000771  0.4184000  2
    142    328    319    310     1  0.0000000  1.6024720  3
    145    358    349    340     1  180.0000771  0.4184000  2
    145    358    349    340     1  0.0000000  1.6024720  3
    150    151    163    175     1  0.0000000  0.6508444  3
    150    154    166    172     1  0.0000000  0.6508444  3
    150    157    160    169     1  0.0000000  0.6508444  3
    151    150    154    166     1  0.0000000  0.6508444  3
    151    150    157    160     1  0.0000000  0.6508444  3
    151    163    175    418     1  0.0000000  0.6508444  3
    154    150    151    163     1  0.0000000  0.6508444  3
    154    150    157    160     1  0.0000000  0.6508444  3
    154    166    172    388     1  0.0000000  0.6508444  3
    157    150    151    163     1  0.0000000  0.6508444  3
    157    150    154    166     1  0.0000000  0.6508444  3
    157    160    169    178     1  0.0000000  0.6508444  3
    163    175    418    409     1  180.0000771  0.4184000  2
    163    175    418    409     1  0.0000000  1.6024720  3
    166    172    388    379     1  180.0000771  0.4184000  2
    166    172    388    379     1  0.0000000  1.6024720  3
    172    388    379    370     1  180.0000771  0.4184000  2
    172    388    379    370     1  0.0000000  1.6024720  3
    175    418    409    400     1  180.0000771  0.4184000  2
    175    418    409    400     1  0.0000000  1.6024720  3
    180    181    193    205     1  0.0000000  0.6508444  3
    180    184    196    202     1  0.0000000  0.6508444  3
    180    187    190    199     1  0.0000000  0.6508444  3
    181    180    184    196     1  0.0000000  0.6508444  3
    181    180    187    190     1  0.0000000  0.6508444  3
    181    193    205    478     1  0.0000000  0.6508444  3
    184    180    181    193     1  0.0000000  0.6508444  3
    184    180    187    190     1  0.0000000  0.6508444  3
    184    196    202    448     1  0.0000000  0.6508444  3
    187    180    181    193     1  0.0000000  0.6508444  3
    187    180    184    196     1  0.0000000  0.6508444  3
    187    190    199    208     1  0.0000000  0.6508444  3
    193    205    478    469     1  180.0000771  0.4184000  2
    193    205    478    469     1  0.0000000  1.6024720  3
    196    202    448    439     1  180.0000771  0.4184000  2
    196    202    448    439     1  0.0000000  1.6024720  3
    202    448    439    430     1  180.0000771  0.4184000  2
    202    448    439    430     1  0.0000000  1.6024720  3
    205    478    469    460     1  180.0000771  0.4184000  2
    205    478    469    460     1  0.0000000  1.6024720  3
    210    211    223    235     1  0.0000000  0.6508444  3
    210    214    226    232     1  0.0000000  0.6508444  3
    210    217    220    229     1  0.0000000  0.6508444  3
    211    210    214    226     1  0.0000000  0.6508444  3
    211    210    217    220     1  0.0000000  0.6508444  3
    211    223    235    538     1  0.0000000  0.6508444  3
    214    210    211    223     1  0.0000000  0.6508444  3
    214    210    217    220     1  0.0000000  0.6508444  3
    214    226    232    508     1  0.0000000  0.6508444  3
    217    210    211    223     1  0.0000000  0.6508444  3
    217    210    214    226     1  0.0000000  0.6508444  3
    217    220    229    238     1  0.0000000  0.6508444  3
    223    235    538    529     1  180.0000771  0.4184000  2
    223    235    538    529     1  0.0000000  1.6024720  3
    226    232    508    499     1  180.0000771  0.4184000  2
    226    232    508    499     1  0.0000000  1.6024720  3
    232    508    499    490     1  180.0000771  0.4184000  2
    232    508    499    490     1  0.0000000  1.6024720  3
    235    538    529    520     1  180.0000771  0.4184000  2
    235    538    529    520     1  0.0000000  1.6024720  3
    240    241    253    265     1  0.0000000  0.6508444  3
    240    244    256    262     1  0.0000000  0.6508444  3
    240    247    250    259     1  0.0000000  0.6508444  3
    241    240    244    256     1  0.0000000  0.6508444  3
    241    240    247    250     1  0.0000000  0.6508444  3
    241    253    265    598     1  0.0000000  0.6508444  3
    244    240    241    253     1  0.0000000  0.6508444  3
    244    240    247    250     1  0.0000000  0.6508444  3
    244    256    262    568     1  0.0000000  0.6508444  3
    247    240    241    253     1  0.0000000  0.6508444  3
    247    240    244    256     1  0.0000000  0.6508444  3
    247    250    259    268     1  0.0000000  0.6508444  3
    253    265    598    589     1  180.0000771  0.4184000  2
    253    265    598    589     1  0.0000000  1.6024720  3
    256    262    568    559     1  180.0000771  0.4184000  2
    256    262    568    559     1  0.0000000  1.6024720  3
    262    568    559    550     1  180.0000771  0.4184000  2
    262    568    559    550     1  0.0000000  1.6024720  3
    265    598    589    580     1  180.0000771  0.4184000  2
    265    598    589    580     1  0.0000000  1.6024720  3
    270    271    283    295     1  0.0000000  0.6508444  3
    270    274    286    292     1  0.0000000  0.6508444  3
    270    277    280    289     1  0.0000000  0.6508444  3
    271    270    274    286     1  0.0000000  0.6508444  3
    271    270    277    280     1  0.0000000  0.6508444  3
    271    283    295    658     1  0.0000000  0.6508444  3
    274    270    271    283     1  0.0000000  0.6508444  3
    274    270    277    280     1  0.0000000  0.6508444  3
    274    286    292    628     1  0.0000000  0.6508444  3
    277    270    271    283     1  0.0000000  0.6508444  3
    277    270    274    286     1  0.0000000  0.6508444  3
    277    280    289    298     1  0.0000000  0.6508444  3
    283    295    658    649     1  180.0000771  0.4184000  2
    283    295    658    649     1  0.0000000  1.6024720  3
    286    292    628    619     1  180.0000771  0.4184000  2
    286    292    628    619     1  0.0000000  1.6024720  3
    292    628    619    610     1  180.0000771  0.4184000  2
    292    628    619    610     1  0.0000000  1.6024720  3
    295    658    649    640     1  180.0000771  0.4184000  2
    295    658    649    640     1  0.0000000  1.6024720  3
    300    301    313    325     1  0.0000000  0.6508444  3
    300    304    316    322     1  0.0000000  0.6508444  3
    300    307    310    319     1  0.0000000  0.6508444  3
    301    300    304    316     1  0.0000000  0.6508444  3
    301    300    307    310     1  0.0000000  0.6508444  3
    301    313    325    718     1  0.0000000  0.6508444  3
    304    300    301    313     1  0.0000000  0.6508444  3
    304    300    307    310     1  0.0000000  0.6508444  3
    304    316    322    688     1  0.0000000  0.6508444  3
    307    300    301    313     1  0.0000000  0.6508444  3
    307    300    304    316     1  0.0000000  0.6508444  3
    307    310    319    328     1  0.0000000  0.6508444  3
    313    325    718    709     1  180.0000771  0.4184000  2
    313    325    718    709     1  0.0000000  1.6024720  3
    316    322    688    679     1  180.0000771  0.4184000  2
    316    322    688    679     1  0.0000000  1.6024720  3
    322    688    679    670     1  180.0000771  0.4184000  2
    322    688    679    670     1  0.0000000  1.6024720  3
    325    718    709    700     1  180.0000771  0.4184000  2
    325    718    709    700     1  0.0000000  1.6024720  3
    330    331    343    355     1  0.0000000  0.6508444  3
    330    334    346    352     1  0.0000000  0.6508444  3
    330    337    340    349     1  0.0000000  0.6508444  3
    331    330    334    346     1  0.0000000  0.6508444  3
    331    330    337    340     1  0.0000000  0.6508444  3
    331    343    355    778     1  0.0000000  0.6508444  3
    334    330    331    343     1  0.0000000  0.6508444  3
    334    330    337    340     1  0.0000000  0.6508444  3
    334    346    352    748     1  0.0000000  0.6508444  3
    337    330    331    343     1  0.0000000  0.6508444  3
    337    330    334    346     1  0.0000000  0.6508444  3
    337    340    349    358     1  0.0000000  0.6508444  3
    343    355    778    769     1  180.0000771  0.4184000  2
    343    355    778    769     1  0.0000000  1.6024720  3
    346    352    748    739     1  180.0000771  0.4184000  2
    346    352    748    739     1  0.0000000  1.6024720  3
    352    748    739    730     1  180.0000771  0.4184000  2
    352    748    739    730     1  0.0000000  1.6024720  3
    355    778    769    760     1  180.0000771  0.4184000  2
    355    778    769    760     1  0.0000000  1.6024720  3
    360    361    373    385     1  0.0000000  0.6508444  3
    360    364    376    382     1  0.0000000  0.6508444  3
    360    367    370    379     1  0.0000000  0.6508444  3
    361    360    364    376     1  0.0000000  0.6508444  3
    361    360    367    370     1  0.0000000  0.6508444  3
    361    373    385    838     1  0.0000000  0.6508444  3
    364    360    361    373     1  0.0000000  0.6508444  3
    364    360    367    370     1  0.0000000  0.6508444  3
    364    376    382    808     1  0.0000000  0.6508444  3
    367    360    361    373     1  0.0000000  0.6508444  3
    367    360    364    376     1  0.0000000  0.6508444  3
    367    370    379    388     1  0.0000000  0.6508444  3
    373    385    838    829     1  180.0000771  0.4184000  2
    373    385    838    829     1  0.0000000  1.6024720  3
    376    382    808    799     1  180.0000771  0.4184000  2
    376    382    808    799     1  0.0000000  1.6024720  3
    382    808    799    790     1  180.0000771  0.4184000  2
    382    808    799    790     1  0.0000000  1.6024720  3
    385    838    829    820     1  180.0000771  0.4184000  2
    385    838    829    820     1  0.0000000  1.6024720  3
    390    391    403    415     1  0.0000000  0.6508444  3
    390    394    406    412     1  0.0000000  0.6508444  3
    390    397    400    409     1  0.0000000  0.6508444  3
    391    390    394    406     1  0.0000000  0.6508444  3
    391    390    397    400     1  0.0000000  0.6508444  3
    391    403    415    898     1  0.0000000  0.6508444  3
    394    390    391    403     1  0.0000000  0.6508444  3
    394    390    397    400     1  0.0000000  0.6508444  3
    394    406    412    868     1  0.0000000  0.6508444  3
    397    390    391    403     1  0.0000000  0.6508444  3
    397    390    394    406     1  0.0000000  0.6508444  3
    397    400    409    418     1  0.0000000  0.6508444  3
    403    415    898    889     1  180.0000771  0.4184000  2
    403    415    898    889     1  0.0000000  1.6024720  3
    406    412    868    859     1  180.0000771  0.4184000  2
    406    412    868    859     1  0.0000000  1.6024720  3
    412    868    859    850     1  180.0000771  0.4184000  2
    412    868    859    850     1  0.0000000  1.6024720  3
    415    898    889    880     1  180.0000771  0.4184000  2
    415    898    889    880     1  0.0000000  1.6024720  3
    420    421    433    445     1  0.0000000  0.6508444  3
    420    424    436    442     1  0.0000000  0.6508444  3
    420    427    430    439     1  0.0000000  0.6508444  3
    421    420    424    436     1  0.0000000  0.6508444  3
    421    420    427    430     1  0.0000000  0.6508444  3
    421    433    445    958     1  0.0000000  0.6508444  3
    424    420    421    433     1  0.0000000  0.6508444  3
    424    420    427    430     1  0.0000000  0.6508444  3
    424    436    442    928     1  0.0000000  0.6508444  3
    427    420    421    433     1  0.0000000  0.6508444  3
    427    420    424    436     1  0.0000000  0.6508444  3
    427    430    439    448     1  0.0000000  0.6508444  3
    433    445    958    949     1  180.0000771  0.4184000  2
    433    445    958    949     1  0.0000000  1.6024720  3
    436    442    928    919     1  180.0000771  0.4184000  2
    436    442    928    919     1  0.0000000  1.6024720  3
    442    928    919    910     1  180.0000771  0.4184000  2
    442    928    919    910     1  0.0000000  1.6024720  3
    445    958    949    940     1  180.0000771  0.4184000  2
    445    958    949    940     1  0.0000000  1.6024720  3
    450    451    463    475     1  0.0000000  0.6508444  3
    450    454    466    472     1  0.0000000  0.6508444  3
    450    457    460    469     1  0.0000000  0.6508444  3
    451    450    454    466     1  0.0000000  0.6508444  3
    451    450    457    460     1  0.0000000  0.6508444  3
    451    463    475   1018     1  0.0000000  0.6508444  3
    454    450    451    463     1  0.0000000  0.6508444  3
    454    450    457    460     1  0.0000000  0.6508444  3
    454    466    472    988     1  0.0000000  0.6508444  3
    457    450    451    463     1  0.0000000  0.6508444  3
    457    450    454    466     1  0.0000000  0.6508444  3
    457    460    469    478     1  0.0000000  0.6508444  3
    463    475   1018   1009     1  180.0000771  0.4184000  2
    463    475   1018   1009     1  0.0000000  1.6024720  3
    466    472    988    979     1  180.0000771  0.4184000  2
    466    472    988    979     1  0.0000000  1.6024720  3
    472    988    979    970     1  180.0000771  0.4184000  2
    472    988    979    970     1  0.0000000  1.6024720  3
    475   1018   1009   1000     1  180.0000771  0.4184000  2
    475   1018   1009   1000     1  0.0000000  1.6024720  3
    480    481    493    505     1  0.0000000  0.6508444  3
    480    484    496    502     1  0.0000000  0.6508444  3
    480    487    490    499     1  0.0000000  0.6508444  3
    481    480    484    496     1  0.0000000  0.6508444  3
    481    480    487    490     1  0.0000000  0.6508444  3
    481    493    505   1078     1  0.0000000  0.6508444  3
    484    480    481    493     1  0.0000000  0.6508444  3
    484    480    487    490     1  0.0000000  0.6508444  3
    484    496    502   1048     1  0.0000000  0.6508444  3
    487    480    481    493     1  0.0000000  0.6508444  3
    487    480    484    496     1  0.0000000  0.6508444  3
    487    490    499    508     1  0.0000000  0.6508444  3
    493    505   1078   1069     1  180.0000771  0.4184000  2
    493    505   1078   1069     1  0.0000000  1.6024720  3
    496    502   1048   1039     1  180.0000771  0.4184000  2
    496    502   1048   1039     1  0.0000000  1.6024720  3
    502   1048   1039   1030     1  180.0000771  0.4184000  2
    502   1048   1039   1030     1  0.0000000  1.6024720  3
    505   1078   1069   1060     1  180.0000771  0.4184000  2
    505   1078   1069   1060     1  0.0000000  1.6024720  3
    510    511    523    535     1  0.0000000  0.6508444  3
    510    514    526    532     1  0.0000000  0.6508444  3
    510    517    520    529     1  0.0000000  0.6508444  3
    511    510    514    526     1  0.0000000  0.6508444  3
    511    510    517    520     1  0.0000000  0.6508444  3
    511    523    535   1138     1  0.0000000  0.6508444  3
    514    510    511    523     1  0.0000000  0.6508444  3
    514    510    517    520     1  0.0000000  0.6508444  3
    514    526    532   1108     1  0.0000000  0.6508444  3
    517    510    511    523     1  0.0000000  0.6508444  3
    517    510    514    526     1  0.0000000  0.6508444  3
    517    520    529    538     1  0.0000000  0.6508444  3
    523    535   1138   1129     1  180.0000771  0.4184000  2
    523    535   1138   1129     1  0.0000000  1.6024720  3
    526    532   1108   1099     1  180.0000771  0.4184000  2
    526    532   1108   1099     1  0.0000000  1.6024720  3
    532   1108   1099   1090     1  180.0000771  0.4184000  2
    532   1108   1099   1090     1  0.0000000  1.6024720  3
    535   1138   1129   1120     1  180.0000771  0.4184000  2
    535   1138   1129   1120     1  0.0000000  1.6024720  3
    540    541    553    565     1  0.0000000  0.6508444  3
    540    544    556    562     1  0.0000000  0.6508444  3
    540    547    550    559     1  0.0000000  0.6508444  3
    541    540    544    556     1  0.0000000  0.6508444  3
    541    540    547    550     1  0.0000000  0.6508444  3
    541    553    565   1198     1  0.0000000  0.6508444  3
    544    540    541    553     1  0.0000000  0.6508444  3
    544    540    547    550     1  0.0000000  0.6508444  3
    544    556    562   1168     1  0.0000000  0.6508444  3
    547    540    541    553     1  0.0000000  0.6508444  3
    547    540    544    556     1  0.0000000  0.6508444  3
    547    550    559    568     1  0.0000000  0.6508444  3
    553    565   1198   1189     1  180.0000771  0.4184000  2
    553    565   1198   1189     1  0.0000000  1.6024720  3
    556    562   1168   1159     1  180.0000771  0.4184000  2
    556    562   1168   1159     1  0.0000000  1.6024720  3
    562   1168   1159   1150     1  180.0000771  0.4184000  2
    562   1168   1159   1150     1  0.0000000  1.6024720  3
    565   1198   1189   1180     1  180.0000771  0.4184000  2
    565   1198   1189   1180     1  0.0000000  1.6024720  3
    570    571    583    595     1  0.0000000  0.6508444  3
    570    574    586    592     1  0.0000000  0.6508444  3
    570    577    580    589     1  0.0000000  0.6508444  3
    571    570    574    586     1  0.0000000  0.6508444  3
    571    570    577    580     1  0.0000000  0.6508444  3
    571    583    595   1258     1  0.0000000  0.6508444  3
    574    570    571    583     1  0.0000000  0.6508444  3
    574    570    577    580     1  0.0000000  0.6508444  3
    574    586    592   1228     1  0.0000000  0.6508444  3
    577    570    571    583     1  0.0000000  0.6508444  3
    577    570    574    586     1  0.0000000  0.6508444  3
    577    580    589    598     1  0.0000000  0.6508444  3
    583    595   1258   1249     1  180.0000771  0.4184000  2
    583    595   1258   1249     1  0.0000000  1.6024720  3
    586    592   1228   1219     1  180.0000771  0.4184000  2
    586    592   1228   1219     1  0.0000000  1.6024720  3
    592   1228   1219   1210     1  180.0000771  0.4184000  2
    592   1228   1219   1210     1  0.0000000  1.6024720  3
    595   1258   1249   1240     1  180.0000771  0.4184000  2
    595   1258   1249   1240     1  0.0000000  1.6024720  3
    600    601    613    625     1  0.0000000  0.6508444  3
    600    604    616    622     1  0.0000000  0.6508444  3
    600    607    610    619     1  0.0000000  0.6508444  3
    601    600    604    616     1  0.0000000  0.6508444  3
    601    600    607    610     1  0.0000000  0.6508444  3
    601    613    625   1318     1  0.0000000  0.6508444  3
    604    600    601    613     1  0.0000000  0.6508444  3
    604    600    607    610     1  0.0000000  0.6508444  3
    604    616    622   1288     1  0.0000000  0.6508444  3
    607    600    601    613     1  0.0000000  0.6508444  3
    607    600    604    616     1  0.0000000  0.6508444  3
    607    610    619    628     1  0.0000000  0.6508444  3
    613    625   1318   1309     1  180.0000771  0.4184000  2
    613    625   1318   1309     1  0.0000000  1.6024720  3
    616    622   1288   1279     1  180.0000771  0.4184000  2
    616    622   1288   1279     1  0.0000000  1.6024720  3
    622   1288   1279   1270     1  180.0000771  0.4184000  2
    622   1288   1279   1270     1  0.0000000  1.6024720  3
    625   1318   1309   1300     1  180.0000771  0.4184000  2
    625   1318   1309   1300     1  0.0000000  1.6024720  3
    630    631    643    655     1  0.0000000  0.6508444  3
    630    634    646    652     1  0.0000000  0.6508444  3
    630    637    640    649     1  0.0000000  0.6508444  3
    631    630    634    646     1  0.0000000  0.6508444  3
    631    630    637    640     1  0.0000000  0.6508444  3
    631    643    655   1378     1  0.0000000  0.6508444  3
    634    630    631    643     1  0.0000000  0.6508444  3
    634    630    637    640     1  0.0000000  0.6508444  3
    634    646    652   1348     1  0.0000000  0.6508444  3
    637    630    631    643     1  0.0000000  0.6508444  3
    637    630    634    646     1  0.0000000  0.6508444  3
    637    640    649    658     1  0.0000000  0.6508444  3
    643    655   1378   1369     1  180.0000771  0.4184000  2
    643    655   1378   1369     1  0.0000000  1.6024720  3
    646    652   1348   1339     1  180.0000771  0.4184000  2
    646    652   1348   1339     1  0.0000000  1.6024720  3
    652   1348   1339   1330     1  180.0000771  0.4184000  2
    652   1348   1339   1330     1  0.0000000  1.6024720  3
    655   1378   1369   1360     1  180.0000771  0.4184000  2
    655   1378   1369   1360     1  0.0000000  1.6024720  3
    660    661    673    685     1  0.0000000  0.6508444  3
    660    664    676    682     1  0.0000000  0.6508444  3
    660    667    670    679     1  0.0000000  0.6508444  3
    661    660    664    676     1  0.0000000  0.6508444  3
    661    660    667    670     1  0.0000000  0.6508444  3
    661    673    685   1438     1  0.0000000  0.6508444  3
    664    660    661    673     1  0.0000000  0.6508444  3
    664    660    667    670     1  0.0000000  0.6508444  3
    664    676    682   1408     1  0.0000000  0.6508444  3
    667    660    661    673     1  0.0000000  0.6508444  3
    667    660    664    676     1  0.0000000  0.6508444  3
    667    670    679    688     1  0.0000000  0.6508444  3
    673    685   1438   1429     1  180.0000771  0.4184000  2
    673    685   1438   1429     1  0.0000000  1.6024720  3
    676    682   1408   1399     1  180.0000771  0.4184000  2
    676    682   1408   1399     1  0.0000000  1.6024720  3
    682   1408   1399   1390     1  180.0000771  0.4184000  2
    682   1408   1399   1390     1  0.0000000  1.6024720  3
    685   1438   1429   1420     1  180.0000771  0.4184000  2
    685   1438   1429   1420     1  0.0000000  1.6024720  3
    690    691    703    715     1  0.0000000  0.6508444  3
    690    694    706    712     1  0.0000000  0.6508444  3
    690    697    700    709     1  0.0000000  0.6508444  3
    691    690    694    706     1  0.0000000  0.6508444  3
    691    690    697    700     1  0.0000000  0.6508444  3
    691    703    715   1498     1  0.0000000  0.6508444  3
    694    690    691    703     1  0.0000000  0.6508444  3
    694    690    697    700     1  0.0000000  0.6508444  3
    694    706    712   1468     1  0.0000000  0.6508444  3
    697    690    691    703     1  0.0000000  0.6508444  3
    697    690    694    706     1  0.0000000  0.6508444  3
    697    700    709    718     1  0.0000000  0.6508444  3
    703    715   1498   1489     1  180.0000771  0.4184000  2
    703    715   1498   1489     1  0.0000000  1.6024720  3
    706    712   1468   1459     1  180.0000771  0.4184000  2
    706    712   1468   1459     1  0.0000000  1.6024720  3
    712   1468   1459   1450     1  180.0000771  0.4184000  2
    712   1468   1459   1450     1  0.0000000  1.6024720  3
    715   1498   1489   1480     1  180.0000771  0.4184000  2
    715   1498   1489   1480     1  0.0000000  1.6024720  3
    720    721    733    745     1  0.0000000  0.6508444  3
    720    724    736    742     1  0.0000000  0.6508444  3
    720    727    730    739     1  0.0000000  0.6508444  3
    721    720    724    736     1  0.0000000  0.6508444  3
    721    720    727    730     1  0.0000000  0.6508444  3
    721    733    745   1558     1  0.0000000  0.6508444  3
    724    720    721    733     1  0.0000000  0.6508444  3
    724    720    727    730     1  0.0000000  0.6508444  3
    724    736    742   1528     1  0.0000000  0.6508444  3
    727    720    721    733     1  0.0000000  0.6508444  3
    727    720    724    736     1  0.0000000  0.6508444  3
    727    730    739    748     1  0.0000000  0.6508444  3
    733    745   1558   1549     1  180.0000771  0.4184000  2
    733    745   1558   1549     1  0.0000000  1.6024720  3
    736    742   1528   1519     1  180.0000771  0.4184000  2
    736    742   1528   1519     1  0.0000000  1.6024720  3
    742   1528   1519   1510     1  180.0000771  0.4184000  2
    742   1528   1519   1510     1  0.0000000  1.6024720  3
    745   1558   1549   1540     1  180.0000771  0.4184000  2
    745   1558   1549   1540     1  0.0000000  1.6024720  3
    750    751    763    775     1  0.0000000  0.6508444  3
    750    754    766    772     1  0.0000000  0.6508444  3
    750    757    760    769     1  0.0000000  0.6508444  3
    751    750    754    766     1  0.0000000  0.6508444  3
    751    750    757    760     1  0.0000000  0.6508444  3
    751    763    775   1618     1  0.0000000  0.6508444  3
    754    750    751    763     1  0.0000000  0.6508444  3
    754    750    757    760     1  0.0000000  0.6508444  3
    754    766    772   1588     1  0.0000000  0.6508444  3
    757    750    751    763     1  0.0000000  0.6508444  3
    757    750    754    766     1  0.0000000  0.6508444  3
    757    760    769    778     1  0.0000000  0.6508444  3
    763    775   1618   1609     1  180.0000771  0.4184000  2
    763    775   1618   1609     1  0.0000000  1.6024720  3
    766    772   1588   1579     1  180.0000771  0.4184000  2
    766    772   1588   1579     1  0.0000000  1.6024720  3
    772   1588   1579   1570     1  180.0000771  0.4184000  2
    772   1588   1579   1570     1  0.0000000  1.6024720  3
    775   1618   1609   1600     1  180.0000771  0.4184000  2
    775   1618   1609   1600     1  0.0000000  1.6024720  3
    780    781    793    805     1  0.0000000  0.6508444  3
    780    784    796    802     1  0.0000000  0.6508444  3
    780    787    790    799     1  0.0000000  0.6508444  3
    781    780    784    796     1  0.0000000  0.6508444  3
    781    780    787    790     1  0.0000000  0.6508444  3
    781    793    805   1678     1  0.0000000  0.6508444  3
    784    780    781    793     1  0.0000000  0.6508444  3
    784    780    787    790     1  0.0000000  0.6508444  3
    784    796    802   1648     1  0.0000000  0.6508444  3
    787    780    781    793     1  0.0000000  0.6508444  3
    787    780    784    796     1  0.0000000  0.6508444  3
    787    790    799    808     1  0.0000000  0.6508444  3
    793    805   1678   1669     1  180.0000771  0.4184000  2
    793    805   1678   1669     1  0.0000000  1.6024720  3
    796    802   1648   1639     1  180.0000771  0.4184000  2
    796    802   1648   1639     1  0.0000000  1.6024720  3
    802   1648   1639   1630     1  180.0000771  0.4184000  2
    802   1648   1639   1630     1  0.0000000  1.6024720  3
    805   1678   1669   1660     1  180.0000771  0.4184000  2
    805   1678   1669   1660     1  0.0000000  1.6024720  3
    810    811    823    835     1  0.0000000  0.6508444  3
    810    814    826    832     1  0.0000000  0.6508444  3
    810    817    820    829     1  0.0000000  0.6508444  3
    811    810    814    826     1  0.0000000  0.6508444  3
    811    810    817    820     1  0.0000000  0.6508444  3
    811    823    835   1738     1  0.0000000  0.6508444  3
    814    810    811    823     1  0.0000000  0.6508444  3
    814    810    817    820     1  0.0000000  0.6508444  3
    814    826    832   1708     1  0.0000000  0.6508444  3
    817    810    811    823     1  0.0000000  0.6508444  3
    817    810    814    826     1  0.0000000  0.6508444  3
    817    820    829    838     1  0.0000000  0.6508444  3
    823    835   1738   1729     1  180.0000771  0.4184000  2
    823    835   1738   1729     1  0.0000000  1.6024720  3
    826    832   1708   1699     1  180.0000771  0.4184000  2
    826    832   1708   1699     1  0.0000000  1.6024720  3
    832   1708   1699   1690     1  180.0000771  0.4184000  2
    832   1708   1699   1690     1  0.0000000  1.6024720  3
    835   1738   1729   1720     1  180.0000771  0.4184000  2
    835   1738   1729   1720     1  0.0000000  1.6024720  3
    840    841    853    865     1  0.0000000  0.6508444  3
    840    844    856    862     1  0.0000000  0.6508444  3
    840    847    850    859     1  0.0000000  0.6508444  3
    841    840    844    856     1  0.0000000  0.6508444  3
    841    840    847    850     1  0.0000000  0.6508444  3
    841    853    865   1798     1  0.0000000  0.6508444  3
    844    840    841    853     1  0.0000000  0.6508444  3
    844    840    847    850     1  0.0000000  0.6508444  3
    844    856    862   1768     1  0.0000000  0.6508444  3
    847    840    841    853     1  0.0000000  0.6508444  3
    847    840    844    856     1  0.0000000  0.6508444  3
    847    850    859    868     1  0.0000000  0.6508444  3
    853    865   1798   1789     1  180.0000771  0.4184000  2
    853    865   1798   1789     1  0.0000000  1.6024720  3
    856    862   1768   1759     1  180.0000771  0.4184000  2
    856    862   1768   1759     1  0.0000000  1.6024720  3
    862   1768   1759   1750     1  180.0000771  0.4184000  2
    862   1768   1759   1750     1  0.0000000  1.6024720  3
    865   1798   1789   1780     1  180.0000771  0.4184000  2
    865   1798   1789   1780     1  0.0000000  1.6024720  3
    870    871    883    895     1  0.0000000  0.6508444  3
    870    874    886    892     1  0.0000000  0.6508444  3
    870    877    880    889     1  0.0000000  0.6508444  3
    871    870    874    886     1  0.0000000  0.6508444  3
    871    870    877    880     1  0.0000000  0.6508444  3
    871    883    895   1858     1  0.0000000  0.6508444  3
    874    870    871    883     1  0.0000000  0.6508444  3
    874    870    877    880     1  0.0000000  0.6508444  3
    874    886    892   1828     1  0.0000000  0.6508444  3
    877    870    871    883     1  0.0000000  0.6508444  3
    877    870    874    886     1  0.0000000  0.6508444  3
    877    880    889    898     1  0.0000000  0.6508444  3
    883    895   1858   1849     1  180.0000771  0.4184000  2
    883    895   1858   1849     1  0.0000000  1.6024720  3
    886    892   1828   1819     1  180.0000771  0.4184000  2
    886    892   1828   1819     1  0.0000000  1.6024720  3
    892   1828   1819   1810     1  180.0000771  0.4184000  2
    892   1828   1819   1810     1  0.0000000  1.6024720  3
    895   1858   1849   1840     1  180.0000771  0.4184000  2
    895   1858   1849   1840     1  0.0000000  1.6024720  3
    900    901    913    925     1  0.0000000  0.6508444  3
    900    904    916    922     1  0.0000000  0.6508444  3
    900    907    910    919     1  0.0000000  0.6508444  3
    901    900    904    916     1  0.0000000  0.6508444  3
    901    900    907    910     1  0.0000000  0.6508444  3
    901    913    925   1918     1  0.0000000  0.6508444  3
    904    900    901    913     1  0.0000000  0.6508444  3
    904    900    907    910     1  0.0000000  0.6508444  3
    904    916    922   1888     1  0.0000000  0.6508444  3
    907    900    901    913     1  0.0000000  0.6508444  3
    907    900    904    916     1  0.0000000  0.6508444  3
    907    910    919    928     1  0.0000000  0.6508444  3
    913    925   1918   1909     1  180.0000771  0.4184000  2
    913    925   1918   1909     1  0.0000000  1.6024720  3
    916    922   1888   1879     1  180.0000771  0.4184000  2
    916    922   1888   1879     1  0.0000000  1.6024720  3
    922   1888   1879   1870     1  180.0000771  0.4184000  2
    922   1888   1879   1870     1  0.0000000  1.6024720  3
    925   1918   1909   1900     1  180.0000771  0.4184000  2
    925   1918   1909   1900     1  0.0000000  1.6024720  3
    930    931    943    955     1  0.0000000  0.6508444  3
    930    934    946    952     1  0.0000000  0.6508444  3
    930    937    940    949     1  0.0000000  0.6508444  3
    931    930    934    946     1  0.0000000  0.6508444  3
    931    930    937    940     1  0.0000000  0.6508444  3
    931    943    955   1978     1  0.0000000  0.6508444  3
    934    930    931    943     1  0.0000000  0.6508444  3
    934    930    937    940     1  0.0000000  0.6508444  3
    934    946    952   1948     1  0.0000000  0.6508444  3
    937    930    931    943     1  0.0000000  0.6508444  3
    937    930    934    946     1  0.0000000  0.6508444  3
    937    940    949    958     1  0.0000000  0.6508444  3
    943    955   1978   1969     1  180.0000771  0.4184000  2
    943    955   1978   1969     1  0.0000000  1.6024720  3
    946    952   1948   1939     1  180.0000771  0.4184000  2
    946    952   1948   1939     1  0.0000000  1.6024720  3
    952   1948   1939   1930     1  180.0000771  0.4184000  2
    952   1948   1939   1930     1  0.0000000  1.6024720  3
    955   1978   1969   1960     1  180.0000771  0.4184000  2
    955   1978   1969   1960     1  0.0000000  1.6024720  3
    960    961    973    985     1  0.0000000  0.6508444  3
    960    964    976    982     1  0.0000000  0.6508444  3
    960    967    970    979     1  0.0000000  0.6508444  3
    961    960    964    976     1  0.0000000  0.6508444  3
    961    960    967    970     1  0.0000000  0.6508444  3
    961    973    985   2038     1  0.0000000  0.6508444  3
    964    960    961    973     1  0.0000000  0.6508444  3
    964    960    967    970     1  0.0000000  0.6508444  3
    964    976    982   2008     1  0.0000000  0.6508444  3
    967    960    961    973     1  0.0000000  0.6508444  3
    967    960    964    976     1  0.0000000  0.6508444  3
    967    970    979    988     1  0.0000000  0.6508444  3
    973    985   2038   2029     1  180.0000771  0.4184000  2
    973    985   2038   2029     1  0.0000000  1.6024720  3
    976    982   2008   1999     1  180.0000771  0.4184000  2
    976    982   2008   1999     1  0.0000000  1.6024720  3
    982   2008   1999   1990     1  180.0000771  0.4184000  2
    982   2008   1999   1990     1  0.0000000  1.6024720  3
    985   2038   2029   2020     1  180.0000771  0.4184000  2
    985   2038   2029   2020     1  0.0000000  1.6024720  3
    990    991   1003   1015     1  0.0000000  0.6508444  3
    990    994   1006   1012     1  0.0000000  0.6508444  3
    990    997   1000   1009     1  0.0000000  0.6508444  3
    991    990    994   1006     1  0.0000000  0.6508444  3
    991    990    997   1000     1  0.0000000  0.6508444  3
    991   1003   1015   2098     1  0.0000000  0.6508444  3
    994    990    991   1003     1  0.0000000  0.6508444  3
    994    990    997   1000     1  0.0000000  0.6508444  3
    994   1006   1012   2068     1  0.0000000  0.6508444  3
    997    990    991   1003     1  0.0000000  0.6508444  3
    997    990    994   1006     1  0.0000000  0.6508444  3
    997   1000   1009   1018     1  0.0000000  0.6508444  3
   1003   1015   2098   2089     1  180.0000771  0.4184000  2
   1003   1015   2098   2089     1  0.0000000  1.6024720  3
   1006   1012   2068   2059     1  180.0000771  0.4184000  2
   1006   1012   2068   2059     1  0.0000000  1.6024720  3
   1012   2068   2059   2050     1  180.0000771  0.4184000  2
   1012   2068   2059   2050     1  0.0000000  1.6024720  3
   1015   2098   2089   2080     1  180.0000771  0.4184000  2
   1015   2098   2089   2080     1  0.0000000  1.6024720  3
   1020   1021   1033   1045     1  0.0000000  0.6508444  3
   1020   1024   1036   1042     1  0.0000000  0.6508444  3
   1020   1027   1030   1039     1  0.0000000  0.6508444  3
   1021   1020   1024   1036     1  0.0000000  0.6508444  3
   1021   1020   1027   1030     1  0.0000000  0.6508444  3
   1021   1033   1045   2158     1  0.0000000  0.6508444  3
   1024   1020   1021   1033     1  0.0000000  0.6508444  3
   1024   1020   1027   1030     1  0.0000000  0.6508444  3
   1024   1036   1042   2128     1  0.0000000  0.6508444  3
   1027   1020   1021   1033     1  0.0000000  0.6508444  3
   1027   1020   1024   1036     1  0.0000000  0.6508444  3
   1027   1030   1039   1048     1  0.0000000  0.6508444  3
   1033   1045   2158   2149     1  180.0000771  0.4184000  2
   1033   1045   2158   2149     1  0.0000000  1.6024720  3
   1036   1042   2128   2119     1  180.0000771  0.4184000  2
   1036   1042   2128   2119     1  0.0000000  1.6024720  3
   1042   2128   2119   2110     1  180.0000771  0.4184000  2
   1042   2128   2119   2110     1  0.0000000  1.6024720  3
   1045   2158   2149   2140     1  180.0000771  0.4184000  2
   1045   2158   2149   2140     1  0.0000000  1.6024720  3
   1050   1051   1063   1075     1  0.0000000  0.6508444  3
   1050   1054   1066   1072     1  0.0000000  0.6508444  3
   1050   1057   1060   1069     1  0.0000000  0.6508444  3
   1051   1050   1054   1066     1  0.0000000  0.6508444  3
   1051   1050   1057   1060     1  0.0000000  0.6508444  3
   1051   1063   1075   2218     1  0.0000000  0.6508444  3
   1054   1050   1051   1063     1  0.0000000  0.6508444  3
   1054   1050   1057   1060     1  0.0000000  0.6508444  3
   1054   1066   1072   2188     1  0.0000000  0.6508444  3
   1057   1050   1051   1063     1  0.0000000  0.6508444  3
   1057   1050   1054   1066     1  0.0000000  0.6508444  3
   1057   1060   1069   1078     1  0.0000000  0.6508444  3
   1063   1075   2218   2209     1  180.0000771  0.4184000  2
   1063   1075   2218   2209     1  0.0000000  1.6024720  3
   1066   1072   2188   2179     1  180.0000771  0.4184000  2
   1066   1072   2188   2179     1  0.0000000  1.6024720  3
   1072   2188   2179   2170     1  180.0000771  0.4184000  2
   1072   2188   2179   2170     1  0.0000000  1.6024720  3
   1075   2218   2209   2200     1  180.0000771  0.4184000  2
   1075   2218   2209   2200     1  0.0000000  1.6024720  3
   1080   1081   1093   1105     1  0.0000000  0.6508444  3
   1080   1084   1096   1102     1  0.0000000  0.6508444  3
   1080   1087   1090   1099     1  0.0000000  0.6508444  3
   1081   1080   1084   1096     1  0.0000000  0.6508444  3
   1081   1080   1087   1090     1  0.0000000  0.6508444  3
   1081   1093   1105   2278     1  0.0000000  0.6508444  3
   1084   1080   1081   1093     1  0.0000000  0.6508444  3
   1084   1080   1087   1090     1  0.0000000  0.6508444  3
   1084   1096   1102   2248     1  0.0000000  0.6508444  3
   1087   1080   1081   1093     1  0.0000000  0.6508444  3
   1087   1080   1084   1096     1  0.0000000  0.6508444  3
   1087   1090   1099   1108     1  0.0000000  0.6508444  3
   1093   1105   2278   2269     1  180.0000771  0.4184000  2
   1093   1105   2278   2269     1  0.0000000  1.6024720  3
   1096   1102   2248   2239     1  180.0000771  0.4184000  2
   1096   1102   2248   2239     1  0.0000000  1.6024720  3
   1102   2248   2239   2230     1  180.0000771  0.4184000  2
   1102   2248   2239   2230     1  0.0000000  1.6024720  3
   1105   2278   2269   2260     1  180.0000771  0.4184000  2
   1105   2278   2269   2260     1  0.0000000  1.6024720  3
   1110   1111   1123   1135     1  0.0000000  0.6508444  3
   1110   1114   1126   1132     1  0.0000000  0.6508444  3
   1110   1117   1120   1129     1  0.0000000  0.6508444  3
   1111   1110   1114   1126     1  0.0000000  0.6508444  3
   1111   1110   1117   1120     1  0.0000000  0.6508444  3
   1111   1123   1135   2338     1  0.0000000  0.6508444  3
   1114   1110   1111   1123     1  0.0000000  0.6508444  3
   1114   1110   1117   1120     1  0.0000000  0.6508444  3
   1114   1126   1132   2308     1  0.0000000  0.6508444  3
   1117   1110   1111   1123     1  0.0000000  0.6508444  3
   1117   1110   1114   1126     1  0.0000000  0.6508444  3
   1117   1120   1129   1138     1  0.0000000  0.6508444  3
   1123   1135   2338   2329     1  180.0000771  0.4184000  2
   1123   1135   2338   2329     1  0.0000000  1.6024720  3
   1126   1132   2308   2299     1  180.0000771  0.4184000  2
   1126   1132   2308   2299     1  0.0000000  1.6024720  3
   1132   2308   2299   2290     1  180.0000771  0.4184000  2
   1132   2308   2299   2290     1  0.0000000  1.6024720  3
   1135   2338   2329   2320     1  180.0000771  0.4184000  2
   1135   2338   2329   2320     1  0.0000000  1.6024720  3
   1140   1141   1153   1165     1  0.0000000  0.6508444  3
   1140   1144   1156   1162     1  0.0000000  0.6508444  3
   1140   1147   1150   1159     1  0.0000000  0.6508444  3
   1141   1140   1144   1156     1  0.0000000  0.6508444  3
   1141   1140   1147   1150     1  0.0000000  0.6508444  3
   1141   1153   1165   2398     1  0.0000000  0.6508444  3
   1144   1140   1141   1153     1  0.0000000  0.6508444  3
   1144   1140   1147   1150     1  0.0000000  0.6508444  3
   1144   1156   1162   2368     1  0.0000000  0.6508444  3
   1147   1140   1141   1153     1  0.0000000  0.6508444  3
   1147   1140   1144   1156     1  0.0000000  0.6508444  3
   1147   1150   1159   1168     1  0.0000000  0.6508444  3
   1153   1165   2398   2389     1  180.0000771  0.4184000  2
   1153   1165   2398   2389     1  0.0000000  1.6024720  3
   1156   1162   2368   2359     1  180.0000771  0.4184000  2
   1156   1162   2368   2359     1  0.0000000  1.6024720  3
   1162   2368   2359   2350     1  180.0000771  0.4184000  2
   1162   2368   2359   2350     1  0.0000000  1.6024720  3
   1165   2398   2389   2380     1  180.0000771  0.4184000  2
   1165   2398   2389   2380     1  0.0000000  1.6024720  3
   1170   1171   1183   1195     1  0.0000000  0.6508444  3
   1170   1174   1186   1192     1  0.0000000  0.6508444  3
   1170   1177   1180   1189     1  0.0000000  0.6508444  3
   1171   1170   1174   1186     1  0.0000000  0.6508444  3
   1171   1170   1177   1180     1  0.0000000  0.6508444  3
   1171   1183   1195   2458     1  0.0000000  0.6508444  3
   1174   1170   1171   1183     1  0.0000000  0.6508444  3
   1174   1170   1177   1180     1  0.0000000  0.6508444  3
   1174   1186   1192   2428     1  0.0000000  0.6508444  3
   1177   1170   1171   1183     1  0.0000000  0.6508444  3
   1177   1170   1174   1186     1  0.0000000  0.6508444  3
   1177   1180   1189   1198     1  0.0000000  0.6508444  3
   1183   1195   2458   2449     1  180.0000771  0.4184000  2
   1183   1195   2458   2449     1  0.0000000  1.6024720  3
   1186   1192   2428   2419     1  180.0000771  0.4184000  2
   1186   1192   2428   2419     1  0.0000000  1.6024720  3
   1192   2428   2419   2410     1  180.0000771  0.4184000  2
   1192   2428   2419   2410     1  0.0000000  1.6024720  3
   1195   2458   2449   2440     1  180.0000771  0.4184000  2
   1195   2458   2449   2440     1  0.0000000  1.6024720  3
   1200   1201   1213   1225     1  0.0000000  0.6508444  3
   1200   1204   1216   1222     1  0.0000000  0.6508444  3
   1200   1207   1210   1219     1  0.0000000  0.6508444  3
   1201   1200   1204   1216     1  0.0000000  0.6508444  3
   1201   1200   1207   1210     1  0.0000000  0.6508444  3
   1201   1213   1225   2518     1  0.0000000  0.6508444  3
   1204   1200   1201   1213     1  0.0000000  0.6508444  3
   1204   1200   1207   1210     1  0.0000000  0.6508444  3
   1204   1216   1222   2488     1  0.0000000  0.6508444  3
   1207   1200   1201   1213     1  0.0000000  0.6508444  3
   1207   1200   1204   1216     1  0.0000000  0.6508444  3
   1207   1210   1219   1228     1  0.0000000  0.6508444  3
   1213   1225   2518   2509     1  180.0000771  0.4184000  2
   1213   1225   2518   2509     1  0.0000000  1.6024720  3
   1216   1222   2488   2479     1  180.0000771  0.4184000  2
   1216   1222   2488   2479     1  0.0000000  1.6024720  3
   1222   2488   2479   2470     1  180.0000771  0.4184000  2
   1222   2488   2479   2470     1  0.0000000  1.6024720  3
   1225   2518   2509   2500     1  180.0000771  0.4184000  2
   1225   2518   2509   2500     1  0.0000000  1.6024720  3
   1230   1231   1243   1255     1  0.0000000  0.6508444  3
   1230   1234   1246   1252     1  0.0000000  0.6508444  3
   1230   1237   1240   1249     1  0.0000000  0.6508444  3
   1231   1230   1234   1246     1  0.0000000  0.6508444  3
   1231   1230   1237   1240     1  0.0000000  0.6508444  3
   1231   1243   1255   2578     1  0.0000000  0.6508444  3
   1234   1230   1231   1243     1  0.0000000  0.6508444  3
   1234   1230   1237   1240     1  0.0000000  0.6508444  3
   1234   1246   1252   2548     1  0.0000000  0.6508444  3
   1237   1230   1231   1243     1  0.0000000  0.6508444  3
   1237   1230   1234   1246     1  0.0000000  0.6508444  3
   1237   1240   1249   1258     1  0.0000000  0.6508444  3
   1243   1255   2578   2569     1  180.0000771  0.4184000  2
   1243   1255   2578   2569     1  0.0000000  1.6024720  3
   1246   1252   2548   2539     1  180.0000771  0.4184000  2
   1246   1252   2548   2539     1  0.0000000  1.6024720  3
   1252   2548   2539   2530     1  180.0000771  0.4184000  2
   1252   2548   2539   2530     1  0.0000000  1.6024720  3
   1255   2578   2569   2560     1  180.0000771  0.4184000  2
   1255   2578   2569   2560     1  0.0000000  1.6024720  3
   1260   1261   1273   1285     1  0.0000000  0.6508444  3
   1260   1264   1276   1282     1  0.0000000  0.6508444  3
   1260   1267   1270   1279     1  0.0000000  0.6508444  3
   1261   1260   1264   1276     1  0.0000000  0.6508444  3
   1261   1260   1267   1270     1  0.0000000  0.6508444  3
   1261   1273   1285   2638     1  0.0000000  0.6508444  3
   1264   1260   1261   1273     1  0.0000000  0.6508444  3
   1264   1260   1267   1270     1  0.0000000  0.6508444  3
   1264   1276   1282   2608     1  0.0000000  0.6508444  3
   1267   1260   1261   1273     1  0.0000000  0.6508444  3
   1267   1260   1264   1276     1  0.0000000  0.6508444  3
   1267   1270   1279   1288     1  0.0000000  0.6508444  3
   1273   1285   2638   2629     1  180.0000771  0.4184000  2
   1273   1285   2638   2629     1  0.0000000  1.6024720  3
   1276   1282   2608   2599     1  180.0000771  0.4184000  2
   1276   1282   2608   2599     1  0.0000000  1.6024720  3
   1282   2608   2599   2590     1  180.0000771  0.4184000  2
   1282   2608   2599   2590     1  0.0000000  1.6024720  3
   1285   2638   2629   2620     1  180.0000771  0.4184000  2
   1285   2638   2629   2620     1  0.0000000  1.6024720  3
   1290   1291   1303   1315     1  0.0000000  0.6508444  3
   1290   1294   1306   1312     1  0.0000000  0.6508444  3
   1290   1297   1300   1309     1  0.0000000  0.6508444  3
   1291   1290   1294   1306     1  0.0000000  0.6508444  3
   1291   1290   1297   1300     1  0.0000000  0.6508444  3
   1291   1303   1315   2698     1  0.0000000  0.6508444  3
   1294   1290   1291   1303     1  0.0000000  0.6508444  3
   1294   1290   1297   1300     1  0.0000000  0.6508444  3
   1294   1306   1312   2668     1  0.0000000  0.6508444  3
   1297   1290   1291   1303     1  0.0000000  0.6508444  3
   1297   1290   1294   1306     1  0.0000000  0.6508444  3
   1297   1300   1309   1318     1  0.0000000  0.6508444  3
   1303   1315   2698   2689     1  180.0000771  0.4184000  2
   1303   1315   2698   2689     1  0.0000000  1.6024720  3
   1306   1312   2668   2659     1  180.0000771  0.4184000  2
   1306   1312   2668   2659     1  0.0000000  1.6024720  3
   1312   2668   2659   2650     1  180.0000771  0.4184000  2
   1312   2668   2659   2650     1  0.0000000  1.6024720  3
   1315   2698   2689   2680     1  180.0000771  0.4184000  2
   1315   2698   2689   2680     1  0.0000000  1.6024720  3
   1320   1321   1333   1345     1  0.0000000  0.6508444  3
   1320   1324   1336   1342     1  0.0000000  0.6508444  3
   1320   1327   1330   1339     1  0.0000000  0.6508444  3
   1321   1320   1324   1336     1  0.0000000  0.6508444  3
   1321   1320   1327   1330     1  0.0000000  0.6508444  3
   1321   1333   1345   2758     1  0.0000000  0.6508444  3
   1324   1320   1321   1333     1  0.0000000  0.6508444  3
   1324   1320   1327   1330     1  0.0000000  0.6508444  3
   1324   1336   1342   2728     1  0.0000000  0.6508444  3
   1327   1320   1321   1333     1  0.0000000  0.6508444  3
   1327   1320   1324   1336     1  0.0000000  0.6508444  3
   1327   1330   1339   1348     1  0.0000000  0.6508444  3
   1333   1345   2758   2749     1  180.0000771  0.4184000  2
   1333   1345   2758   2749     1  0.0000000  1.6024720  3
   1336   1342   2728   2719     1  180.0000771  0.4184000  2
   1336   1342   2728   2719     1  0.0000000  1.6024720  3
   1342   2728   2719   2710     1  180.0000771  0.4184000  2
   1342   2728   2719   2710     1  0.0000000  1.6024720  3
   1345   2758   2749   2740     1  180.0000771  0.4184000  2
   1345   2758   2749   2740     1  0.0000000  1.6024720  3
   1350   1351   1363   1375     1  0.0000000  0.6508444  3
   1350   1354   1366   1372     1  0.0000000  0.6508444  3
   1350   1357   1360   1369     1  0.0000000  0.6508444  3
   1351   1350   1354   1366     1  0.0000000  0.6508444  3
   1351   1350   1357   1360     1  0.0000000  0.6508444  3
   1351   1363   1375   2818     1  0.0000000  0.6508444  3
   1354   1350   1351   1363     1  0.0000000  0.6508444  3
   1354   1350   1357   1360     1  0.0000000  0.6508444  3
   1354   1366   1372   2788     1  0.0000000  0.6508444  3
   1357   1350   1351   1363     1  0.0000000  0.6508444  3
   1357   1350   1354   1366     1  0.0000000  0.6508444  3
   1357   1360   1369   1378     1  0.0000000  0.6508444  3
   1363   1375   2818   2809     1  180.0000771  0.4184000  2
   1363   1375   2818   2809     1  0.0000000  1.6024720  3
   1366   1372   2788   2779     1  180.0000771  0.4184000  2
   1366   1372   2788   2779     1  0.0000000  1.6024720  3
   1372   2788   2779   2770     1  180.0000771  0.4184000  2
   1372   2788   2779   2770     1  0.0000000  1.6024720  3
   1375   2818   2809   2800     1  180.0000771  0.4184000  2
   1375   2818   2809   2800     1  0.0000000  1.6024720  3
   1380   1381   1393   1405     1  0.0000000  0.6508444  3
   1380   1384   1396   1402     1  0.0000000  0.6508444  3
   1380   1387   1390   1399     1  0.0000000  0.6508444  3
   1381   1380   1384   1396     1  0.0000000  0.6508444  3
   1381   1380   1387   1390     1  0.0000000  0.6508444  3
   1381   1393   1405   2846     1  0.0000000  0.6508444  3
   1384   1380   1381   1393     1  0.0000000  0.6508444  3
   1384   1380   1387   1390     1  0.0000000  0.6508444  3
   1384   1396   1402   2832     1  0.0000000  0.6508444  3
   1387   1380   1381   1393     1  0.0000000  0.6508444  3
   1387   1380   1384   1396     1  0.0000000  0.6508444  3
   1387   1390   1399   1408     1  0.0000000  0.6508444  3
   1393   1405   2846   2840     1  180.0000771  0.4184000  2
   1393   1405   2846   2840     1  0.0000000  1.6024720  3
   1396   1402   2832   2826     1  180.0000771  0.4184000  2
   1396   1402   2832   2826     1  0.0000000  1.6024720  3
   1402   2832   2826   2823     1  180.0000771  0.4184000  2
   1402   2832   2826   2823     1  0.0000000  1.6024720  3
   1405   2846   2840   2837     1  180.0000771  0.4184000  2
   1405   2846   2840   2837     1  0.0000000  1.6024720  3
   1410   1411   1423   1435     1  0.0000000  0.6508444  3
   1410   1414   1426   1432     1  0.0000000  0.6508444  3
   1410   1417   1420   1429     1  0.0000000  0.6508444  3
   1411   1410   1414   1426     1  0.0000000  0.6508444  3
   1411   1410   1417   1420     1  0.0000000  0.6508444  3
   1411   1423   1435   2874     1  0.0000000  0.6508444  3
   1414   1410   1411   1423     1  0.0000000  0.6508444  3
   1414   1410   1417   1420     1  0.0000000  0.6508444  3
   1414   1426   1432   2860     1  0.0000000  0.6508444  3
   1417   1410   1411   1423     1  0.0000000  0.6508444  3
   1417   1410   1414   1426     1  0.0000000  0.6508444  3
   1417   1420   1429   1438     1  0.0000000  0.6508444  3
   1423   1435   2874   2868     1  180.0000771  0.4184000  2
   1423   1435   2874   2868     1  0.0000000  1.6024720  3
   1426   1432   2860   2854     1  180.0000771  0.4184000  2
   1426   1432   2860   2854     1  0.0000000  1.6024720  3
   1432   2860   2854   2851     1  180.0000771  0.4184000  2
   1432   2860   2854   2851     1  0.0000000  1.6024720  3
   1435   2874   2868   2865     1  180.0000771  0.4184000  2
   1435   2874   2868   2865     1  0.0000000  1.6024720  3
   1440   1441   1453   1465     1  0.0000000  0.6508444  3
   1440   1444   1456   1462     1  0.0000000  0.6508444  3
   1440   1447   1450   1459     1  0.0000000  0.6508444  3
   1441   1440   1444   1456     1  0.0000000  0.6508444  3
   1441   1440   1447   1450     1  0.0000000  0.6508444  3
   1441   1453   1465   2902     1  0.0000000  0.6508444  3
   1444   1440   1441   1453     1  0.0000000  0.6508444  3
   1444   1440   1447   1450     1  0.0000000  0.6508444  3
   1444   1456   1462   2888     1  0.0000000  0.6508444  3
   1447   1440   1441   1453     1  0.0000000  0.6508444  3
   1447   1440   1444   1456     1  0.0000000  0.6508444  3
   1447   1450   1459   1468     1  0.0000000  0.6508444  3
   1453   1465   2902   2896     1  180.0000771  0.4184000  2
   1453   1465   2902   2896     1  0.0000000  1.6024720  3
   1456   1462   2888   2882     1  180.0000771  0.4184000  2
   1456   1462   2888   2882     1  0.0000000  1.6024720  3
   1462   2888   2882   2879     1  180.0000771  0.4184000  2
   1462   2888   2882   2879     1  0.0000000  1.6024720  3
   1465   2902   2896   2893     1  180.0000771  0.4184000  2
   1465   2902   2896   2893     1  0.0000000  1.6024720  3
   1470   1471   1483   1495     1  0.0000000  0.6508444  3
   1470   1474   1486   1492     1  0.0000000  0.6508444  3
   1470   1477   1480   1489     1  0.0000000  0.6508444  3
   1471   1470   1474   1486     1  0.0000000  0.6508444  3
   1471   1470   1477   1480     1  0.0000000  0.6508444  3
   1471   1483   1495   2930     1  0.0000000  0.6508444  3
   1474   1470   1471   1483     1  0.0000000  0.6508444  3
   1474   1470   1477   1480     1  0.0000000  0.6508444  3
   1474   1486   1492   2916     1  0.0000000  0.6508444  3
   1477   1470   1471   1483     1  0.0000000  0.6508444  3
   1477   1470   1474   1486     1  0.0000000  0.6508444  3
   1477   1480   1489   1498     1  0.0000000  0.6508444  3
   1483   1495   2930   2924     1  180.0000771  0.4184000  2
   1483   1495   2930   2924     1  0.0000000  1.6024720  3
   1486   1492   2916   2910     1  180.0000771  0.4184000  2
   1486   1492   2916   2910     1  0.0000000  1.6024720  3
   1492   2916   2910   2907     1  180.0000771  0.4184000  2
   1492   2916   2910   2907     1  0.0000000  1.6024720  3
   1495   2930   2924   2921     1  180.0000771  0.4184000  2
   1495   2930   2924   2921     1  0.0000000  1.6024720  3
   1500   1501   1513   1525     1  0.0000000  0.6508444  3
   1500   1504   1516   1522     1  0.0000000  0.6508444  3
   1500   1507   1510   1519     1  0.0000000  0.6508444  3
   1501   1500   1504   1516     1  0.0000000  0.6508444  3
   1501   1500   1507   1510     1  0.0000000  0.6508444  3
   1501   1513   1525   2958     1  0.0000000  0.6508444  3
   1504   1500   1501   1513     1  0.0000000  0.6508444  3
   1504   1500   1507   1510     1  0.0000000  0.6508444  3
   1504   1516   1522   2944     1  0.0000000  0.6508444  3
   1507   1500   1501   1513     1  0.0000000  0.6508444  3
   1507   1500   1504   1516     1  0.0000000  0.6508444  3
   1507   1510   1519   1528     1  0.0000000  0.6508444  3
   1513   1525   2958   2952     1  180.0000771  0.4184000  2
   1513   1525   2958   2952     1  0.0000000  1.6024720  3
   1516   1522   2944   2938     1  180.0000771  0.4184000  2
   1516   1522   2944   2938     1  0.0000000  1.6024720  3
   1522   2944   2938   2935     1  180.0000771  0.4184000  2
   1522   2944   2938   2935     1  0.0000000  1.6024720  3
   1525   2958   2952   2949     1  180.0000771  0.4184000  2
   1525   2958   2952   2949     1  0.0000000  1.6024720  3
   1530   1531   1543   1555     1  0.0000000  0.6508444  3
   1530   1534   1546   1552     1  0.0000000  0.6508444  3
   1530   1537   1540   1549     1  0.0000000  0.6508444  3
   1531   1530   1534   1546     1  0.0000000  0.6508444  3
   1531   1530   1537   1540     1  0.0000000  0.6508444  3
   1531   1543   1555   2986     1  0.0000000  0.6508444  3
   1534   1530   1531   1543     1  0.0000000  0.6508444  3
   1534   1530   1537   1540     1  0.0000000  0.6508444  3
   1534   1546   1552   2972     1  0.0000000  0.6508444  3
   1537   1530   1531   1543     1  0.0000000  0.6508444  3
   1537   1530   1534   1546     1  0.0000000  0.6508444  3
   1537   1540   1549   1558     1  0.0000000  0.6508444  3
   1543   1555   2986   2980     1  180.0000771  0.4184000  2
   1543   1555   2986   2980     1  0.0000000  1.6024720  3
   1546   1552   2972   2966     1  180.0000771  0.4184000  2
   1546   1552   2972   2966     1  0.0000000  1.6024720  3
   1552   2972   2966   2963     1  180.0000771  0.4184000  2
   1552   2972   2966   2963     1  0.0000000  1.6024720  3
   1555   2986   2980   2977     1  180.0000771  0.4184000  2
   1555   2986   2980   2977     1  0.0000000  1.6024720  3
   1560   1561   1573   1585     1  0.0000000  0.6508444  3
   1560   1564   1576   1582     1  0.0000000  0.6508444  3
   1560   1567   1570   1579     1  0.0000000  0.6508444  3
   1561   1560   1564   1576     1  0.0000000  0.6508444  3
   1561   1560   1567   1570     1  0.0000000  0.6508444  3
   1561   1573   1585   3014     1  0.0000000  0.6508444  3
   1564   1560   1561   1573     1  0.0000000  0.6508444  3
   1564   1560   1567   1570     1  0.0000000  0.6508444  3
   1564   1576   1582   3000     1  0.0000000  0.6508444  3
   1567   1560   1561   1573     1  0.0000000  0.6508444  3
   1567   1560   1564   1576     1  0.0000000  0.6508444  3
   1567   1570   1579   1588     1  0.0000000  0.6508444  3
   1573   1585   3014   3008     1  180.0000771  0.4184000  2
   1573   1585   3014   3008     1  0.0000000  1.6024720  3
   1576   1582   3000   2994     1  180.0000771  0.4184000  2
   1576   1582   3000   2994     1  0.0000000  1.6024720  3
   1582   3000   2994   2991     1  180.0000771  0.4184000  2
   1582   3000   2994   2991     1  0.0000000  1.6024720  3
   1585   3014   3008   3005     1  180.0000771  0.4184000  2
   1585   3014   3008   3005     1  0.0000000  1.6024720  3
   1590   1591   1603   1615     1  0.0000000  0.6508444  3
   1590   1594   1606   1612     1  0.0000000  0.6508444  3
   1590   1597   1600   1609     1  0.0000000  0.6508444  3
   1591   1590   1594   1606     1  0.0000000  0.6508444  3
   1591   1590   1597   1600     1  0.0000000  0.6508444  3
   1591   1603   1615   3042     1  0.0000000  0.6508444  3
   1594   1590   1591   1603     1  0.0000000  0.6508444  3
   1594   1590   1597   1600     1  0.0000000  0.6508444  3
   1594   1606   1612   3028     1  0.0000000  0.6508444  3
   1597   1590   1591   1603     1  0.0000000  0.6508444  3
   1597   1590   1594   1606     1  0.0000000  0.6508444  3
   1597   1600   1609   1618     1  0.0000000  0.6508444  3
   1603   1615   3042   3036     1  180.0000771  0.4184000  2
   1603   1615   3042   3036     1  0.0000000  1.6024720  3
   1606   1612   3028   3022     1  180.0000771  0.4184000  2
   1606   1612   3028   3022     1  0.0000000  1.6024720  3
   1612   3028   3022   3019     1  180.0000771  0.4184000  2
   1612   3028   3022   3019     1  0.0000000  1.6024720  3
   1615   3042   3036   3033     1  180.0000771  0.4184000  2
   1615   3042   3036   3033     1  0.0000000  1.6024720  3
   1620   1621   1633   1645     1  0.0000000  0.6508444  3
   1620   1624   1636   1642     1  0.0000000  0.6508444  3
   1620   1627   1630   1639     1  0.0000000  0.6508444  3
   1621   1620   1624   1636     1  0.0000000  0.6508444  3
   1621   1620   1627   1630     1  0.0000000  0.6508444  3
   1621   1633   1645   3070     1  0.0000000  0.6508444  3
   1624   1620   1621   1633     1  0.0000000  0.6508444  3
   1624   1620   1627   1630     1  0.0000000  0.6508444  3
   1624   1636   1642   3056     1  0.0000000  0.6508444  3
   1627   1620   1621   1633     1  0.0000000  0.6508444  3
   1627   1620   1624   1636     1  0.0000000  0.6508444  3
   1627   1630   1639   1648     1  0.0000000  0.6508444  3
   1633   1645   3070   3064     1  180.0000771  0.4184000  2
   1633   1645   3070   3064     1  0.0000000  1.6024720  3
   1636   1642   3056   3050     1  180.0000771  0.4184000  2
   1636   1642   3056   3050     1  0.0000000  1.6024720  3
   1642   3056   3050   3047     1  180.0000771  0.4184000  2
   1642   3056   3050   3047     1  0.0000000  1.6024720  3
   1645   3070   3064   3061     1  180.0000771  0.4184000  2
   1645   3070   3064   3061     1  0.0000000  1.6024720  3
   1650   1651   1663   1675     1  0.0000000  0.6508444  3
   1650   1654   1666   1672     1  0.0000000  0.6508444  3
   1650   1657   1660   1669     1  0.0000000  0.6508444  3
   1651   1650   1654   1666     1  0.0000000  0.6508444  3
   1651   1650   1657   1660     1  0.0000000  0.6508444  3
   1651   1663   1675   3098     1  0.0000000  0.6508444  3
   1654   1650   1651   1663     1  0.0000000  0.6508444  3
   1654   1650   1657   1660     1  0.0000000  0.6508444  3
   1654   1666   1672   3084     1  0.0000000  0.6508444  3
   1657   1650   1651   1663     1  0.0000000  0.6508444  3
   1657   1650   1654   1666     1  0.0000000  0.6508444  3
   1657   1660   1669   1678     1  0.0000000  0.6508444  3
   1663   1675   3098   3092     1  180.0000771  0.4184000  2
   1663   1675   3098   3092     1  0.0000000  1.6024720  3
   1666   1672   3084   3078     1  180.0000771  0.4184000  2
   1666   1672   3084   3078     1  0.0000000  1.6024720  3
   1672   3084   3078   3075     1  180.0000771  0.4184000  2
   1672   3084   3078   3075     1  0.0000000  1.6024720  3
   1675   3098   3092   3089     1  180.0000771  0.4184000  2
   1675   3098   3092   3089     1  0.0000000  1.6024720  3
   1680   1681   1693   1705     1  0.0000000  0.6508444  3
   1680   1684   1696   1702     1  0.0000000  0.6508444  3
   1680   1687   1690   1699     1  0.0000000  0.6508444  3
   1681   1680   1684   1696     1  0.0000000  0.6508444  3
   1681   1680   1687   1690     1  0.0000000  0.6508444  3
   1681   1693   1705   3126     1  0.0000000  0.6508444  3
   1684   1680   1681   1693     1  0.0000000  0.6508444  3
   1684   1680   1687   1690     1  0.0000000  0.6508444  3
   1684   1696   1702   3112     1  0.0000000  0.6508444  3
   1687   1680   1681   1693     1  0.0000000  0.6508444  3
   1687   1680   1684   1696     1  0.0000000  0.6508444  3
   1687   1690   1699   1708     1  0.0000000  0.6508444  3
   1693   1705   3126   3120     1  180.0000771  0.4184000  2
   1693   1705   3126   3120     1  0.0000000  1.6024720  3
   1696   1702   3112   3106     1  180.0000771  0.4184000  2
   1696   1702   3112   3106     1  0.0000000  1.6024720  3
   1702   3112   3106   3103     1  180.0000771  0.4184000  2
   1702   3112   3106   3103     1  0.0000000  1.6024720  3
   1705   3126   3120   3117     1  180.0000771  0.4184000  2
   1705   3126   3120   3117     1  0.0000000  1.6024720  3
   1710   1711   1723   1735     1  0.0000000  0.6508444  3
   1710   1714   1726   1732     1  0.0000000  0.6508444  3
   1710   1717   1720   1729     1  0.0000000  0.6508444  3
   1711   1710   1714   1726     1  0.0000000  0.6508444  3
   1711   1710   1717   1720     1  0.0000000  0.6508444  3
   1711   1723   1735   3154     1  0.0000000  0.6508444  3
   1714   1710   1711   1723     1  0.0000000  0.6508444  3
   1714   1710   1717   1720     1  0.0000000  0.6508444  3
   1714   1726   1732   3140     1  0.0000000  0.6508444  3
   1717   1710   1711   1723     1  0.0000000  0.6508444  3
   1717   1710   1714   1726     1  0.0000000  0.6508444  3
   1717   1720   1729   1738     1  0.0000000  0.6508444  3
   1723   1735   3154   3148     1  180.0000771  0.4184000  2
   1723   1735   3154   3148     1  0.0000000  1.6024720  3
   1726   1732   3140   3134     1  180.0000771  0.4184000  2
   1726   1732   3140   3134     1  0.0000000  1.6024720  3
   1732   3140   3134   3131     1  180.0000771  0.4184000  2
   1732   3140   3134   3131     1  0.0000000  1.6024720  3
   1735   3154   3148   3145     1  180.0000771  0.4184000  2
   1735   3154   3148   3145     1  0.0000000  1.6024720  3
   1740   1741   1753   1765     1  0.0000000  0.6508444  3
   1740   1744   1756   1762     1  0.0000000  0.6508444  3
   1740   1747   1750   1759     1  0.0000000  0.6508444  3
   1741   1740   1744   1756     1  0.0000000  0.6508444  3
   1741   1740   1747   1750     1  0.0000000  0.6508444  3
   1741   1753   1765   3182     1  0.0000000  0.6508444  3
   1744   1740   1741   1753     1  0.0000000  0.6508444  3
   1744   1740   1747   1750     1  0.0000000  0.6508444  3
   1744   1756   1762   3168     1  0.0000000  0.6508444  3
   1747   1740   1741   1753     1  0.0000000  0.6508444  3
   1747   1740   1744   1756     1  0.0000000  0.6508444  3
   1747   1750   1759   1768     1  0.0000000  0.6508444  3
   1753   1765   3182   3176     1  180.0000771  0.4184000  2
   1753   1765   3182   3176     1  0.0000000  1.6024720  3
   1756   1762   3168   3162     1  180.0000771  0.4184000  2
   1756   1762   3168   3162     1  0.0000000  1.6024720  3
   1762   3168   3162   3159     1  180.0000771  0.4184000  2
   1762   3168   3162   3159     1  0.0000000  1.6024720  3
   1765   3182   3176   3173     1  180.0000771  0.4184000  2
   1765   3182   3176   3173     1  0.0000000  1.6024720  3
   1770   1771   1783   1795     1  0.0000000  0.6508444  3
   1770   1774   1786   1792     1  0.0000000  0.6508444  3
   1770   1777   1780   1789     1  0.0000000  0.6508444  3
   1771   1770   1774   1786     1  0.0000000  0.6508444  3
   1771   1770   1777   1780     1  0.0000000  0.6508444  3
   1771   1783   1795   3210     1  0.0000000  0.6508444  3
   1774   1770   1771   1783     1  0.0000000  0.6508444  3
   1774   1770   1777   1780     1  0.0000000  0.6508444  3
   1774   1786   1792   3196     1  0.0000000  0.6508444  3
   1777   1770   1771   1783     1  0.0000000  0.6508444  3
   1777   1770   1774   1786     1  0.0000000  0.6508444  3
   1777   1780   1789   1798     1  0.0000000  0.6508444  3
   1783   1795   3210   3204     1  180.0000771  0.4184000  2
   1783   1795   3210   3204     1  0.0000000  1.6024720  3
   1786   1792   3196   3190     1  180.0000771  0.4184000  2
   1786   1792   3196   3190     1  0.0000000  1.6024720  3
   1792   3196   3190   3187     1  180.0000771  0.4184000  2
   1792   3196   3190   3187     1  0.0000000  1.6024720  3
   1795   3210   3204   3201     1  180.0000771  0.4184000  2
   1795   3210   3204   3201     1  0.0000000  1.6024720  3
   1800   1801   1813   1825     1  0.0000000  0.6508444  3
   1800   1804   1816   1822     1  0.0000000  0.6508444  3
   1800   1807   1810   1819     1  0.0000000  0.6508444  3
   1801   1800   1804   1816     1  0.0000000  0.6508444  3
   1801   1800   1807   1810     1  0.0000000  0.6508444  3
   1801   1813   1825   3238     1  0.0000000  0.6508444  3
   1804   1800   1801   1813     1  0.0000000  0.6508444  3
   1804   1800   1807   1810     1  0.0000000  0.6508444  3
   1804   1816   1822   3224     1  0.0000000  0.6508444  3
   1807   1800   1801   1813     1  0.0000000  0.6508444  3
   1807   1800   1804   1816     1  0.0000000  0.6508444  3
   1807   1810   1819   1828     1  0.0000000  0.6508444  3
   1813   1825   3238   3232     1  180.0000771  0.4184000  2
   1813   1825   3238   3232     1  0.0000000  1.6024720  3
   1816   1822   3224   3218     1  180.0000771  0.4184000  2
   1816   1822   3224   3218     1  0.0000000  1.6024720  3
   1822   3224   3218   3215     1  180.0000771  0.4184000  2
   1822   3224   3218   3215     1  0.0000000  1.6024720  3
   1825   3238   3232   3229     1  180.0000771  0.4184000  2
   1825   3238   3232   3229     1  0.0000000  1.6024720  3
   1830   1831   1843   1855     1  0.0000000  0.6508444  3
   1830   1834   1846   1852     1  0.0000000  0.6508444  3
   1830   1837   1840   1849     1  0.0000000  0.6508444  3
   1831   1830   1834   1846     1  0.0000000  0.6508444  3
   1831   1830   1837   1840     1  0.0000000  0.6508444  3
   1831   1843   1855   3266     1  0.0000000  0.6508444  3
   1834   1830   1831   1843     1  0.0000000  0.6508444  3
   1834   1830   1837   1840     1  0.0000000  0.6508444  3
   1834   1846   1852   3252     1  0.0000000  0.6508444  3
   1837   1830   1831   1843     1  0.0000000  0.6508444  3
   1837   1830   1834   1846     1  0.0000000  0.6508444  3
   1837   1840   1849   1858     1  0.0000000  0.6508444  3
   1843   1855   3266   3260     1  180.0000771  0.4184000  2
   1843   1855   3266   3260     1  0.0000000  1.6024720  3
   1846   1852   3252   3246     1  180.0000771  0.4184000  2
   1846   1852   3252   3246     1  0.0000000  1.6024720  3
   1852   3252   3246   3243     1  180.0000771  0.4184000  2
   1852   3252   3246   3243     1  0.0000000  1.6024720  3
   1855   3266   3260   3257     1  180.0000771  0.4184000  2
   1855   3266   3260   3257     1  0.0000000  1.6024720  3
   1860   1861   1873   1885     1  0.0000000  0.6508444  3
   1860   1864   1876   1882     1  0.0000000  0.6508444  3
   1860   1867   1870   1879     1  0.0000000  0.6508444  3
   1861   1860   1864   1876     1  0.0000000  0.6508444  3
   1861   1860   1867   1870     1  0.0000000  0.6508444  3
   1861   1873   1885   3294     1  0.0000000  0.6508444  3
   1864   1860   1861   1873     1  0.0000000  0.6508444  3
   1864   1860   1867   1870     1  0.0000000  0.6508444  3
   1864   1876   1882   3280     1  0.0000000  0.6508444  3
   1867   1860   1861   1873     1  0.0000000  0.6508444  3
   1867   1860   1864   1876     1  0.0000000  0.6508444  3
   1867   1870   1879   1888     1  0.0000000  0.6508444  3
   1873   1885   3294   3288     1  180.0000771  0.4184000  2
   1873   1885   3294   3288     1  0.0000000  1.6024720  3
   1876   1882   3280   3274     1  180.0000771  0.4184000  2
   1876   1882   3280   3274     1  0.0000000  1.6024720  3
   1882   3280   3274   3271     1  180.0000771  0.4184000  2
   1882   3280   3274   3271     1  0.0000000  1.6024720  3
   1885   3294   3288   3285     1  180.0000771  0.4184000  2
   1885   3294   3288   3285     1  0.0000000  1.6024720  3
   1890   1891   1903   1915     1  0.0000000  0.6508444  3
   1890   1894   1906   1912     1  0.0000000  0.6508444  3
   1890   1897   1900   1909     1  0.0000000  0.6508444  3
   1891   1890   1894   1906     1  0.0000000  0.6508444  3
   1891   1890   1897   1900     1  0.0000000  0.6508444  3
   1891   1903   1915   3322     1  0.0000000  0.6508444  3
   1894   1890   1891   1903     1  0.0000000  0.6508444  3
   1894   1890   1897   1900     1  0.0000000  0.6508444  3
   1894   1906   1912   3308     1  0.0000000  0.6508444  3
   1897   1890   1891   1903     1  0.0000000  0.6508444  3
   1897   1890   1894   1906     1  0.0000000  0.6508444  3
   1897   1900   1909   1918     1  0.0000000  0.6508444  3
   1903   1915   3322   3316     1  180.0000771  0.4184000  2
   1903   1915   3322   3316     1  0.0000000  1.6024720  3
   1906   1912   3308   3302     1  180.0000771  0.4184000  2
   1906   1912   3308   3302     1  0.0000000  1.6024720  3
   1912   3308   3302   3299     1  180.0000771  0.4184000  2
   1912   3308   3302   3299     1  0.0000000  1.6024720  3
   1915   3322   3316   3313     1  180.0000771  0.4184000  2
   1915   3322   3316   3313     1  0.0000000  1.6024720  3
   1920   1921   1933   1945     1  0.0000000  0.6508444  3
   1920   1924   1936   1942     1  0.0000000  0.6508444  3
   1920   1927   1930   1939     1  0.0000000  0.6508444  3
   1921   1920   1924   1936     1  0.0000000  0.6508444  3
   1921   1920   1927   1930     1  0.0000000  0.6508444  3
   1921   1933   1945   3350     1  0.0000000  0.6508444  3
   1924   1920   1921   1933     1  0.0000000  0.6508444  3
   1924   1920   1927   1930     1  0.0000000  0.6508444  3
   1924   1936   1942   3336     1  0.0000000  0.6508444  3
   1927   1920   1921   1933     1  0.0000000  0.6508444  3
   1927   1920   1924   1936     1  0.0000000  0.6508444  3
   1927   1930   1939   1948     1  0.0000000  0.6508444  3
   1933   1945   3350   3344     1  180.0000771  0.4184000  2
   1933   1945   3350   3344     1  0.0000000  1.6024720  3
   1936   1942   3336   3330     1  180.0000771  0.4184000  2
   1936   1942   3336   3330     1  0.0000000  1.6024720  3
   1942   3336   3330   3327     1  180.0000771  0.4184000  2
   1942   3336   3330   3327     1  0.0000000  1.6024720  3
   1945   3350   3344   3341     1  180.0000771  0.4184000  2
   1945   3350   3344   3341     1  0.0000000  1.6024720  3
   1950   1951   1963   1975     1  0.0000000  0.6508444  3
   1950   1954   1966   1972     1  0.0000000  0.6508444  3
   1950   1957   1960   1969     1  0.0000000  0.6508444  3
   1951   1950   1954   1966     1  0.0000000  0.6508444  3
   1951   1950   1957   1960     1  0.0000000  0.6508444  3
   1951   1963   1975   3378     1  0.0000000  0.6508444  3
   1954   1950   1951   1963     1  0.0000000  0.6508444  3
   1954   1950   1957   1960     1  0.0000000  0.6508444  3
   1954   1966   1972   3364     1  0.0000000  0.6508444  3
   1957   1950   1951   1963     1  0.0000000  0.6508444  3
   1957   1950   1954   1966     1  0.0000000  0.6508444  3
   1957   1960   1969   1978     1  0.0000000  0.6508444  3
   1963   1975   3378   3372     1  180.0000771  0.4184000  2
   1963   1975   3378   3372     1  0.0000000  1.6024720  3
   1966   1972   3364   3358     1  180.0000771  0.4184000  2
   1966   1972   3364   3358     1  0.0000000  1.6024720  3
   1972   3364   3358   3355     1  180.0000771  0.4184000  2
   1972   3364   3358   3355     1  0.0000000  1.6024720  3
   1975   3378   3372   3369     1  180.0000771  0.4184000  2
   1975   3378   3372   3369     1  0.0000000  1.6024720  3
   1980   1981   1993   2005     1  0.0000000  0.6508444  3
   1980   1984   1996   2002     1  0.0000000  0.6508444  3
   1980   1987   1990   1999     1  0.0000000  0.6508444  3
   1981   1980   1984   1996     1  0.0000000  0.6508444  3
   1981   1980   1987   1990     1  0.0000000  0.6508444  3
   1981   1993   2005   3406     1  0.0000000  0.6508444  3
   1984   1980   1981   1993     1  0.0000000  0.6508444  3
   1984   1980   1987   1990     1  0.0000000  0.6508444  3
   1984   1996   2002   3392     1  0.0000000  0.6508444  3
   1987   1980   1981   1993     1  0.0000000  0.6508444  3
   1987   1980   1984   1996     1  0.0000000  0.6508444  3
   1987   1990   1999   2008     1  0.0000000  0.6508444  3
   1993   2005   3406   3400     1  180.0000771  0.4184000  2
   1993   2005   3406   3400     1  0.0000000  1.6024720  3
   1996   2002   3392   3386     1  180.0000771  0.4184000  2
   1996   2002   3392   3386     1  0.0000000  1.6024720  3
   2002   3392   3386   3383     1  180.0000771  0.4184000  2
   2002   3392   3386   3383     1  0.0000000  1.6024720  3
   2005   3406   3400   3397     1  180.0000771  0.4184000  2
   2005   3406   3400   3397     1  0.0000000  1.6024720  3
   2010   2011   2023   2035     1  0.0000000  0.6508444  3
   2010   2014   2026   2032     1  0.0000000  0.6508444  3
   2010   2017   2020   2029     1  0.0000000  0.6508444  3
   2011   2010   2014   2026     1  0.0000000  0.6508444  3
   2011   2010   2017   2020     1  0.0000000  0.6508444  3
   2011   2023   2035   3434     1  0.0000000  0.6508444  3
   2014   2010   2011   2023     1  0.0000000  0.6508444  3
   2014   2010   2017   2020     1  0.0000000  0.6508444  3
   2014   2026   2032   3420     1  0.0000000  0.6508444  3
   2017   2010   2011   2023     1  0.0000000  0.6508444  3
   2017   2010   2014   2026     1  0.0000000  0.6508444  3
   2017   2020   2029   2038     1  0.0000000  0.6508444  3
   2023   2035   3434   3428     1  180.0000771  0.4184000  2
   2023   2035   3434   3428     1  0.0000000  1.6024720  3
   2026   2032   3420   3414     1  180.0000771  0.4184000  2
   2026   2032   3420   3414     1  0.0000000  1.6024720  3
   2032   3420   3414   3411     1  180.0000771  0.4184000  2
   2032   3420   3414   3411     1  0.0000000  1.6024720  3
   2035   3434   3428   3425     1  180.0000771  0.4184000  2
   2035   3434   3428   3425     1  0.0000000  1.6024720  3
   2040   2041   2053   2065     1  0.0000000  0.6508444  3
   2040   2044   2056   2062     1  0.0000000  0.6508444  3
   2040   2047   2050   2059     1  0.0000000  0.6508444  3
   2041   2040   2044   2056     1  0.0000000  0.6508444  3
   2041   2040   2047   2050     1  0.0000000  0.6508444  3
   2041   2053   2065   3462     1  0.0000000  0.6508444  3
   2044   2040   2041   2053     1  0.0000000  0.6508444  3
   2044   2040   2047   2050     1  0.0000000  0.6508444  3
   2044   2056   2062   3448     1  0.0000000  0.6508444  3
   2047   2040   2041   2053     1  0.0000000  0.6508444  3
   2047   2040   2044   2056     1  0.0000000  0.6508444  3
   2047   2050   2059   2068     1  0.0000000  0.6508444  3
   2053   2065   3462   3456     1  180.0000771  0.4184000  2
   2053   2065   3462   3456     1  0.0000000  1.6024720  3
   2056   2062   3448   3442     1  180.0000771  0.4184000  2
   2056   2062   3448   3442     1  0.0000000  1.6024720  3
   2062   3448   3442   3439     1  180.0000771  0.4184000  2
   2062   3448   3442   3439     1  0.0000000  1.6024720  3
   2065   3462   3456   3453     1  180.0000771  0.4184000  2
   2065   3462   3456   3453     1  0.0000000  1.6024720  3
   2070   2071   2083   2095     1  0.0000000  0.6508444  3
   2070   2074   2086   2092     1  0.0000000  0.6508444  3
   2070   2077   2080   2089     1  0.0000000  0.6508444  3
   2071   2070   2074   2086     1  0.0000000  0.6508444  3
   2071   2070   2077   2080     1  0.0000000  0.6508444  3
   2071   2083   2095   3490     1  0.0000000  0.6508444  3
   2074   2070   2071   2083     1  0.0000000  0.6508444  3
   2074   2070   2077   2080     1  0.0000000  0.6508444  3
   2074   2086   2092   3476     1  0.0000000  0.6508444  3
   2077   2070   2071   2083     1  0.0000000  0.6508444  3
   2077   2070   2074   2086     1  0.0000000  0.6508444  3
   2077   2080   2089   2098     1  0.0000000  0.6508444  3
   2083   2095   3490   3484     1  180.0000771  0.4184000  2
   2083   2095   3490   3484     1  0.0000000  1.6024720  3
   2086   2092   3476   3470     1  180.0000771  0.4184000  2
   2086   2092   3476   3470     1  0.0000000  1.6024720  3
   2092   3476   3470   3467     1  180.0000771  0.4184000  2
   2092   3476   3470   3467     1  0.0000000  1.6024720  3
   2095   3490   3484   3481     1  180.0000771  0.4184000  2
   2095   3490   3484   3481     1  0.0000000  1.6024720  3
   2100   2101   2113   2125     1  0.0000000  0.6508444  3
   2100   2104   2116   2122     1  0.0000000  0.6508444  3
   2100   2107   2110   2119     1  0.0000000  0.6508444  3
   2101   2100   2104   2116     1  0.0000000  0.6508444  3
   2101   2100   2107   2110     1  0.0000000  0.6508444  3
   2101   2113   2125   3518     1  0.0000000  0.6508444  3
   2104   2100   2101   2113     1  0.0000000  0.6508444  3
   2104   2100   2107   2110     1  0.0000000  0.6508444  3
   2104   2116   2122   3504     1  0.0000000  0.6508444  3
   2107   2100   2101   2113     1  0.0000000  0.6508444  3
   2107   2100   2104   2116     1  0.0000000  0.6508444  3
   2107   2110   2119   2128     1  0.0000000  0.6508444  3
   2113   2125   3518   3512     1  180.0000771  0.4184000  2
   2113   2125   3518   3512     1  0.0000000  1.6024720  3
   2116   2122   3504   3498     1  180.0000771  0.4184000  2
   2116   2122   3504   3498     1  0.0000000  1.6024720  3
   2122   3504   3498   3495     1  180.0000771  0.4184000  2
   2122   3504   3498   3495     1  0.0000000  1.6024720  3
   2125   3518   3512   3509     1  180.0000771  0.4184000  2
   2125   3518   3512   3509     1  0.0000000  1.6024720  3
   2130   2131   2143   2155     1  0.0000000  0.6508444  3
   2130   2134   2146   2152     1  0.0000000  0.6508444  3
   2130   2137   2140   2149     1  0.0000000  0.6508444  3
   2131   2130   2134   2146     1  0.0000000  0.6508444  3
   2131   2130   2137   2140     1  0.0000000  0.6508444  3
   2131   2143   2155   3546     1  0.0000000  0.6508444  3
   2134   2130   2131   2143     1  0.0000000  0.6508444  3
   2134   2130   2137   2140     1  0.0000000  0.6508444  3
   2134   2146   2152   3532     1  0.0000000  0.6508444  3
   2137   2130   2131   2143     1  0.0000000  0.6508444  3
   2137   2130   2134   2146     1  0.0000000  0.6508444  3
   2137   2140   2149   2158     1  0.0000000  0.6508444  3
   2143   2155   3546   3540     1  180.0000771  0.4184000  2
   2143   2155   3546   3540     1  0.0000000  1.6024720  3
   2146   2152   3532   3526     1  180.0000771  0.4184000  2
   2146   2152   3532   3526     1  0.0000000  1.6024720  3
   2152   3532   3526   3523     1  180.0000771  0.4184000  2
   2152   3532   3526   3523     1  0.0000000  1.6024720  3
   2155   3546   3540   3537     1  180.0000771  0.4184000  2
   2155   3546   3540   3537     1  0.0000000  1.6024720  3
   2160   2161   2173   2185     1  0.0000000  0.6508444  3
   2160   2164   2176   2182     1  0.0000000  0.6508444  3
   2160   2167   2170   2179     1  0.0000000  0.6508444  3
   2161   2160   2164   2176     1  0.0000000  0.6508444  3
   2161   2160   2167   2170     1  0.0000000  0.6508444  3
   2161   2173   2185   3574     1  0.0000000  0.6508444  3
   2164   2160   2161   2173     1  0.0000000  0.6508444  3
   2164   2160   2167   2170     1  0.0000000  0.6508444  3
   2164   2176   2182   3560     1  0.0000000  0.6508444  3
   2167   2160   2161   2173     1  0.0000000  0.6508444  3
   2167   2160   2164   2176     1  0.0000000  0.6508444  3
   2167   2170   2179   2188     1  0.0000000  0.6508444  3
   2173   2185   3574   3568     1  180.0000771  0.4184000  2
   2173   2185   3574   3568     1  0.0000000  1.6024720  3
   2176   2182   3560   3554     1  180.0000771  0.4184000  2
   2176   2182   3560   3554     1  0.0000000  1.6024720  3
   2182   3560   3554   3551     1  180.0000771  0.4184000  2
   2182   3560   3554   3551     1  0.0000000  1.6024720  3
   2185   3574   3568   3565     1  180.0000771  0.4184000  2
   2185   3574   3568   3565     1  0.0000000  1.6024720  3
   2190   2191   2203   2215     1  0.0000000  0.6508444  3
   2190   2194   2206   2212     1  0.0000000  0.6508444  3
   2190   2197   2200   2209     1  0.0000000  0.6508444  3
   2191   2190   2194   2206     1  0.0000000  0.6508444  3
   2191   2190   2197   2200     1  0.0000000  0.6508444  3
   2191   2203   2215   3602     1  0.0000000  0.6508444  3
   2194   2190   2191   2203     1  0.0000000  0.6508444  3
   2194   2190   2197   2200     1  0.0000000  0.6508444  3
   2194   2206   2212   3588     1  0.0000000  0.6508444  3
   2197   2190   2191   2203     1  0.0000000  0.6508444  3
   2197   2190   2194   2206     1  0.0000000  0.6508444  3
   2197   2200   2209   2218     1  0.0000000  0.6508444  3
   2203   2215   3602   3596     1  180.0000771  0.4184000  2
   2203   2215   3602   3596     1  0.0000000  1.6024720  3
   2206   2212   3588   3582     1  180.0000771  0.4184000  2
   2206   2212   3588   3582     1  0.0000000  1.6024720  3
   2212   3588   3582   3579     1  180.0000771  0.4184000  2
   2212   3588   3582   3579     1  0.0000000  1.6024720  3
   2215   3602   3596   3593     1  180.0000771  0.4184000  2
   2215   3602   3596   3593     1  0.0000000  1.6024720  3
   2220   2221   2233   2245     1  0.0000000  0.6508444  3
   2220   2224   2236   2242     1  0.0000000  0.6508444  3
   2220   2227   2230   2239     1  0.0000000  0.6508444  3
   2221   2220   2224   2236     1  0.0000000  0.6508444  3
   2221   2220   2227   2230     1  0.0000000  0.6508444  3
   2221   2233   2245   3630     1  0.0000000  0.6508444  3
   2224   2220   2221   2233     1  0.0000000  0.6508444  3
   2224   2220   2227   2230     1  0.0000000  0.6508444  3
   2224   2236   2242   3616     1  0.0000000  0.6508444  3
   2227   2220   2221   2233     1  0.0000000  0.6508444  3
   2227   2220   2224   2236     1  0.0000000  0.6508444  3
   2227   2230   2239   2248     1  0.0000000  0.6508444  3
   2233   2245   3630   3624     1  180.0000771  0.4184000  2
   2233   2245   3630   3624     1  0.0000000  1.6024720  3
   2236   2242   3616   3610     1  180.0000771  0.4184000  2
   2236   2242   3616   3610     1  0.0000000  1.6024720  3
   2242   3616   3610   3607     1  180.0000771  0.4184000  2
   2242   3616   3610   3607     1  0.0000000  1.6024720  3
   2245   3630   3624   3621     1  180.0000771  0.4184000  2
   2245   3630   3624   3621     1  0.0000000  1.6024720  3
   2250   2251   2263   2275     1  0.0000000  0.6508444  3
   2250   2254   2266   2272     1  0.0000000  0.6508444  3
   2250   2257   2260   2269     1  0.0000000  0.6508444  3
   2251   2250   2254   2266     1  0.0000000  0.6508444  3
   2251   2250   2257   2260     1  0.0000000  0.6508444  3
   2251   2263   2275   3658     1  0.0000000  0.6508444  3
   2254   2250   2251   2263     1  0.0000000  0.6508444  3
   2254   2250   2257   2260     1  0.0000000  0.6508444  3
   2254   2266   2272   3644     1  0.0000000  0.6508444  3
   2257   2250   2251   2263     1  0.0000000  0.6508444  3
   2257   2250   2254   2266     1  0.0000000  0.6508444  3
   2257   2260   2269   2278     1  0.0000000  0.6508444  3
   2263   2275   3658   3652     1  180.0000771  0.4184000  2
   2263   2275   3658   3652     1  0.0000000  1.6024720  3
   2266   2272   3644   3638     1  180.0000771  0.4184000  2
   2266   2272   3644   3638     1  0.0000000  1.6024720  3
   2272   3644   3638   3635     1  180.0000771  0.4184000  2
   2272   3644   3638   3635     1  0.0000000  1.6024720  3
   2275   3658   3652   3649     1  180.0000771  0.4184000  2
   2275   3658   3652   3649     1  0.0000000  1.6024720  3
   2280   2281   2293   2305     1  0.0000000  0.6508444  3
   2280   2284   2296   2302     1  0.0000000  0.6508444  3
   2280   2287   2290   2299     1  0.0000000  0.6508444  3
   2281   2280   2284   2296     1  0.0000000  0.6508444  3
   2281   2280   2287   2290     1  0.0000000  0.6508444  3
   2281   2293   2305   3686     1  0.0000000  0.6508444  3
   2284   2280   2281   2293     1  0.0000000  0.6508444  3
   2284   2280   2287   2290     1  0.0000000  0.6508444  3
   2284   2296   2302   3672     1  0.0000000  0.6508444  3
   2287   2280   2281   2293     1  0.0000000  0.6508444  3
   2287   2280   2284   2296     1  0.0000000  0.6508444  3
   2287   2290   2299   2308     1  0.0000000  0.6508444  3
   2293   2305   3686   3680     1  180.0000771  0.4184000  2
   2293   2305   3686   3680     1  0.0000000  1.6024720  3
   2296   2302   3672   3666     1  180.0000771  0.4184000  2
   2296   2302   3672   3666     1  0.0000000  1.6024720  3
   2302   3672   3666   3663     1  180.0000771  0.4184000  2
   2302   3672   3666   3663     1  0.0000000  1.6024720  3
   2305   3686   3680   3677     1  180.0000771  0.4184000  2
   2305   3686   3680   3677     1  0.0000000  1.6024720  3
   2310   2311   2323   2335     1  0.0000000  0.6508444  3
   2310   2314   2326   2332     1  0.0000000  0.6508444  3
   2310   2317   2320   2329     1  0.0000000  0.6508444  3
   2311   2310   2314   2326     1  0.0000000  0.6508444  3
   2311   2310   2317   2320     1  0.0000000  0.6508444  3
   2311   2323   2335   3714     1  0.0000000  0.6508444  3
   2314   2310   2311   2323     1  0.0000000  0.6508444  3
   2314   2310   2317   2320     1  0.0000000  0.6508444  3
   2314   2326   2332   3700     1  0.0000000  0.6508444  3
   2317   2310   2311   2323     1  0.0000000  0.6508444  3
   2317   2310   2314   2326     1  0.0000000  0.6508444  3
   2317   2320   2329   2338     1  0.0000000  0.6508444  3
   2323   2335   3714   3708     1  180.0000771  0.4184000  2
   2323   2335   3714   3708     1  0.0000000  1.6024720  3
   2326   2332   3700   3694     1  180.0000771  0.4184000  2
   2326   2332   3700   3694     1  0.0000000  1.6024720  3
   2332   3700   3694   3691     1  180.0000771  0.4184000  2
   2332   3700   3694   3691     1  0.0000000  1.6024720  3
   2335   3714   3708   3705     1  180.0000771  0.4184000  2
   2335   3714   3708   3705     1  0.0000000  1.6024720  3
   2340   2341   2353   2365     1  0.0000000  0.6508444  3
   2340   2344   2356   2362     1  0.0000000  0.6508444  3
   2340   2347   2350   2359     1  0.0000000  0.6508444  3
   2341   2340   2344   2356     1  0.0000000  0.6508444  3
   2341   2340   2347   2350     1  0.0000000  0.6508444  3
   2341   2353   2365   3742     1  0.0000000  0.6508444  3
   2344   2340   2341   2353     1  0.0000000  0.6508444  3
   2344   2340   2347   2350     1  0.0000000  0.6508444  3
   2344   2356   2362   3728     1  0.0000000  0.6508444  3
   2347   2340   2341   2353     1  0.0000000  0.6508444  3
   2347   2340   2344   2356     1  0.0000000  0.6508444  3
   2347   2350   2359   2368     1  0.0000000  0.6508444  3
   2353   2365   3742   3736     1  180.0000771  0.4184000  2
   2353   2365   3742   3736     1  0.0000000  1.6024720  3
   2356   2362   3728   3722     1  180.0000771  0.4184000  2
   2356   2362   3728   3722     1  0.0000000  1.6024720  3
   2362   3728   3722   3719     1  180.0000771  0.4184000  2
   2362   3728   3722   3719     1  0.0000000  1.6024720  3
   2365   3742   3736   3733     1  180.0000771  0.4184000  2
   2365   3742   3736   3733     1  0.0000000  1.6024720  3
   2370   2371   2383   2395     1  0.0000000  0.6508444  3
   2370   2374   2386   2392     1  0.0000000  0.6508444  3
   2370   2377   2380   2389     1  0.0000000  0.6508444  3
   2371   2370   2374   2386     1  0.0000000  0.6508444  3
   2371   2370   2377   2380     1  0.0000000  0.6508444  3
   2371   2383   2395   3770     1  0.0000000  0.6508444  3
   2374   2370   2371   2383     1  0.0000000  0.6508444  3
   2374   2370   2377   2380     1  0.0000000  0.6508444  3
   2374   2386   2392   3756     1  0.0000000  0.6508444  3
   2377   2370   2371   2383     1  0.0000000  0.6508444  3
   2377   2370   2374   2386     1  0.0000000  0.6508444  3
   2377   2380   2389   2398     1  0.0000000  0.6508444  3
   2383   2395   3770   3764     1  180.0000771  0.4184000  2
   2383   2395   3770   3764     1  0.0000000  1.6024720  3
   2386   2392   3756   3750     1  180.0000771  0.4184000  2
   2386   2392   3756   3750     1  0.0000000  1.6024720  3
   2392   3756   3750   3747     1  180.0000771  0.4184000  2
   2392   3756   3750   3747     1  0.0000000  1.6024720  3
   2395   3770   3764   3761     1  180.0000771  0.4184000  2
   2395   3770   3764   3761     1  0.0000000  1.6024720  3
   2400   2401   2413   2425     1  0.0000000  0.6508444  3
   2400   2404   2416   2422     1  0.0000000  0.6508444  3
   2400   2407   2410   2419     1  0.0000000  0.6508444  3
   2401   2400   2404   2416     1  0.0000000  0.6508444  3
   2401   2400   2407   2410     1  0.0000000  0.6508444  3
   2401   2413   2425   3798     1  0.0000000  0.6508444  3
   2404   2400   2401   2413     1  0.0000000  0.6508444  3
   2404   2400   2407   2410     1  0.0000000  0.6508444  3
   2404   2416   2422   3784     1  0.0000000  0.6508444  3
   2407   2400   2401   2413     1  0.0000000  0.6508444  3
   2407   2400   2404   2416     1  0.0000000  0.6508444  3
   2407   2410   2419   2428     1  0.0000000  0.6508444  3
   2413   2425   3798   3792     1  180.0000771  0.4184000  2
   2413   2425   3798   3792     1  0.0000000  1.6024720  3
   2416   2422   3784   3778     1  180.0000771  0.4184000  2
   2416   2422   3784   3778     1  0.0000000  1.6024720  3
   2422   3784   3778   3775     1  180.0000771  0.4184000  2
   2422   3784   3778   3775     1  0.0000000  1.6024720  3
   2425   3798   3792   3789     1  180.0000771  0.4184000  2
   2425   3798   3792   3789     1  0.0000000  1.6024720  3
   2430   2431   2443   2455     1  0.0000000  0.6508444  3
   2430   2434   2446   2452     1  0.0000000  0.6508444  3
   2430   2437   2440   2449     1  0.0000000  0.6508444  3
   2431   2430   2434   2446     1  0.0000000  0.6508444  3
   2431   2430   2437   2440     1  0.0000000  0.6508444  3
   2431   2443   2455   3826     1  0.0000000  0.6508444  3
   2434   2430   2431   2443     1  0.0000000  0.6508444  3
   2434   2430   2437   2440     1  0.0000000  0.6508444  3
   2434   2446   2452   3812     1  0.0000000  0.6508444  3
   2437   2430   2431   2443     1  0.0000000  0.6508444  3
   2437   2430   2434   2446     1  0.0000000  0.6508444  3
   2437   2440   2449   2458     1  0.0000000  0.6508444  3
   2443   2455   3826   3820     1  180.0000771  0.4184000  2
   2443   2455   3826   3820     1  0.0000000  1.6024720  3
   2446   2452   3812   3806     1  180.0000771  0.4184000  2
   2446   2452   3812   3806     1  0.0000000  1.6024720  3
   2452   3812   3806   3803     1  180.0000771  0.4184000  2
   2452   3812   3806   3803     1  0.0000000  1.6024720  3
   2455   3826   3820   3817     1  180.0000771  0.4184000  2
   2455   3826   3820   3817     1  0.0000000  1.6024720  3
   2460   2461   2473   2485     1  0.0000000  0.6508444  3
   2460   2464   2476   2482     1  0.0000000  0.6508444  3
   2460   2467   2470   2479     1  0.0000000  0.6508444  3
   2461   2460   2464   2476     1  0.0000000  0.6508444  3
   2461   2460   2467   2470     1  0.0000000  0.6508444  3
   2461   2473   2485   3854     1  0.0000000  0.6508444  3
   2464   2460   2461   2473     1  0.0000000  0.6508444  3
   2464   2460   2467   2470     1  0.0000000  0.6508444  3
   2464   2476   2482   3840     1  0.0000000  0.6508444  3
   2467   2460   2461   2473     1  0.0000000  0.6508444  3
   2467   2460   2464   2476     1  0.0000000  0.6508444  3
   2467   2470   2479   2488     1  0.0000000  0.6508444  3
   2473   2485   3854   3848     1  180.0000771  0.4184000  2
   2473   2485   3854   3848     1  0.0000000  1.6024720  3
   2476   2482   3840   3834     1  180.0000771  0.4184000  2
   2476   2482   3840   3834     1  0.0000000  1.6024720  3
   2482   3840   3834   3831     1  180.0000771  0.4184000  2
   2482   3840   3834   3831     1  0.0000000  1.6024720  3
   2485   3854   3848   3845     1  180.0000771  0.4184000  2
   2485   3854   3848   3845     1  0.0000000  1.6024720  3
   2490   2491   2503   2515     1  0.0000000  0.6508444  3
   2490   2494   2506   2512     1  0.0000000  0.6508444  3
   2490   2497   2500   2509     1  0.0000000  0.6508444  3
   2491   2490   2494   2506     1  0.0000000  0.6508444  3
   2491   2490   2497   2500     1  0.0000000  0.6508444  3
   2491   2503   2515   3882     1  0.0000000  0.6508444  3
   2494   2490   2491   2503     1  0.0000000  0.6508444  3
   2494   2490   2497   2500     1  0.0000000  0.6508444  3
   2494   2506   2512   3868     1  0.0000000  0.6508444  3
   2497   2490   2491   2503     1  0.0000000  0.6508444  3
   2497   2490   2494   2506     1  0.0000000  0.6508444  3
   2497   2500   2509   2518     1  0.0000000  0.6508444  3
   2503   2515   3882   3876     1  180.0000771  0.4184000  2
   2503   2515   3882   3876     1  0.0000000  1.6024720  3
   2506   2512   3868   3862     1  180.0000771  0.4184000  2
   2506   2512   3868   3862     1  0.0000000  1.6024720  3
   2512   3868   3862   3859     1  180.0000771  0.4184000  2
   2512   3868   3862   3859     1  0.0000000  1.6024720  3
   2515   3882   3876   3873     1  180.0000771  0.4184000  2
   2515   3882   3876   3873     1  0.0000000  1.6024720  3
   2520   2521   2533   2545     1  0.0000000  0.6508444  3
   2520   2524   2536   2542     1  0.0000000  0.6508444  3
   2520   2527   2530   2539     1  0.0000000  0.6508444  3
   2521   2520   2524   2536     1  0.0000000  0.6508444  3
   2521   2520   2527   2530     1  0.0000000  0.6508444  3
   2521   2533   2545   3910     1  0.0000000  0.6508444  3
   2524   2520   2521   2533     1  0.0000000  0.6508444  3
   2524   2520   2527   2530     1  0.0000000  0.6508444  3
   2524   2536   2542   3896     1  0.0000000  0.6508444  3
   2527   2520   2521   2533     1  0.0000000  0.6508444  3
   2527   2520   2524   2536     1  0.0000000  0.6508444  3
   2527   2530   2539   2548     1  0.0000000  0.6508444  3
   2533   2545   3910   3904     1  180.0000771  0.4184000  2
   2533   2545   3910   3904     1  0.0000000  1.6024720  3
   2536   2542   3896   3890     1  180.0000771  0.4184000  2
   2536   2542   3896   3890     1  0.0000000  1.6024720  3
   2542   3896   3890   3887     1  180.0000771  0.4184000  2
   2542   3896   3890   3887     1  0.0000000  1.6024720  3
   2545   3910   3904   3901     1  180.0000771  0.4184000  2
   2545   3910   3904   3901     1  0.0000000  1.6024720  3
   2550   2551   2563   2575     1  0.0000000  0.6508444  3
   2550   2554   2566   2572     1  0.0000000  0.6508444  3
   2550   2557   2560   2569     1  0.0000000  0.6508444  3
   2551   2550   2554   2566     1  0.0000000  0.6508444  3
   2551   2550   2557   2560     1  0.0000000  0.6508444  3
   2551   2563   2575   3938     1  0.0000000  0.6508444  3
   2554   2550   2551   2563     1  0.0000000  0.6508444  3
   2554   2550   2557   2560     1  0.0000000  0.6508444  3
   2554   2566   2572   3924     1  0.0000000  0.6508444  3
   2557   2550   2551   2563     1  0.0000000  0.6508444  3
   2557   2550   2554   2566     1  0.0000000  0.6508444  3
   2557   2560   2569   2578     1  0.0000000  0.6508444  3
   2563   2575   3938   3932     1  180.0000771  0.4184000  2
   2563   2575   3938   3932     1  0.0000000  1.6024720  3
   2566   2572   3924   3918     1  180.0000771  0.4184000  2
   2566   2572   3924   3918     1  0.0000000  1.6024720  3
   2572   3924   3918   3915     1  180.0000771  0.4184000  2
   2572   3924   3918   3915     1  0.0000000  1.6024720  3
   2575   3938   3932   3929     1  180.0000771  0.4184000  2
   2575   3938   3932   3929     1  0.0000000  1.6024720  3
   2580   2581   2593   2605     1  0.0000000  0.6508444  3
   2580   2584   2596   2602     1  0.0000000  0.6508444  3
   2580   2587   2590   2599     1  0.0000000  0.6508444  3
   2581   2580   2584   2596     1  0.0000000  0.6508444  3
   2581   2580   2587   2590     1  0.0000000  0.6508444  3
   2581   2593   2605   3966     1  0.0000000  0.6508444  3
   2584   2580   2581   2593     1  0.0000000  0.6508444  3
   2584   2580   2587   2590     1  0.0000000  0.6508444  3
   2584   2596   2602   3952     1  0.0000000  0.6508444  3
   2587   2580   2581   2593     1  0.0000000  0.6508444  3
   2587   2580   2584   2596     1  0.0000000  0.6508444  3
   2587   2590   2599   2608     1  0.0000000  0.6508444  3
   2593   2605   3966   3960     1  180.0000771  0.4184000  2
   2593   2605   3966   3960     1  0.0000000  1.6024720  3
   2596   2602   3952   3946     1  180.0000771  0.4184000  2
   2596   2602   3952   3946     1  0.0000000  1.6024720  3
   2602   3952   3946   3943     1  180.0000771  0.4184000  2
   2602   3952   3946   3943     1  0.0000000  1.6024720  3
   2605   3966   3960   3957     1  180.0000771  0.4184000  2
   2605   3966   3960   3957     1  0.0000000  1.6024720  3
   2610   2611   2623   2635     1  0.0000000  0.6508444  3
   2610   2614   2626   2632     1  0.0000000  0.6508444  3
   2610   2617   2620   2629     1  0.0000000  0.6508444  3
   2611   2610   2614   2626     1  0.0000000  0.6508444  3
   2611   2610   2617   2620     1  0.0000000  0.6508444  3
   2611   2623   2635   3994     1  0.0000000  0.6508444  3
   2614   2610   2611   2623     1  0.0000000  0.6508444  3
   2614   2610   2617   2620     1  0.0000000  0.6508444  3
   2614   2626   2632   3980     1  0.0000000  0.6508444  3
   2617   2610   2611   2623     1  0.0000000  0.6508444  3
   2617   2610   2614   2626     1  0.0000000  0.6508444  3
   2617   2620   2629   2638     1  0.0000000  0.6508444  3
   2623   2635   3994   3988     1  180.0000771  0.4184000  2
   2623   2635   3994   3988     1  0.0000000  1.6024720  3
   2626   2632   3980   3974     1  180.0000771  0.4184000  2
   2626   2632   3980   3974     1  0.0000000  1.6024720  3
   2632   3980   3974   3971     1  180.0000771  0.4184000  2
   2632   3980   3974   3971     1  0.0000000  1.6024720  3
   2635   3994   3988   3985     1  180.0000771  0.4184000  2
   2635   3994   3988   3985     1  0.0000000  1.6024720  3
   2640   2641   2653   2665     1  0.0000000  0.6508444  3
   2640   2644   2656   2662     1  0.0000000  0.6508444  3
   2640   2647   2650   2659     1  0.0000000  0.6508444  3
   2641   2640   2644   2656     1  0.0000000  0.6508444  3
   2641   2640   2647   2650     1  0.0000000  0.6508444  3
   2641   2653   2665   4022     1  0.0000000  0.6508444  3
   2644   2640   2641   2653     1  0.0000000  0.6508444  3
   2644   2640   2647   2650     1  0.0000000  0.6508444  3
   2644   2656   2662   4008     1  0.0000000  0.6508444  3
   2647   2640   2641   2653     1  0.0000000  0.6508444  3
   2647   2640   2644   2656     1  0.0000000  0.6508444  3
   2647   2650   2659   2668     1  0.0000000  0.6508444  3
   2653   2665   4022   4016     1  180.0000771  0.4184000  2
   2653   2665   4022   4016     1  0.0000000  1.6024720  3
   2656   2662   4008   4002     1  180.0000771  0.4184000  2
   2656   2662   4008   4002     1  0.0000000  1.6024720  3
   2662   4008   4002   3999     1  180.0000771  0.4184000  2
   2662   4008   4002   3999     1  0.0000000  1.6024720  3
   2665   4022   4016   4013     1  180.0000771  0.4184000  2
   2665   4022   4016   4013     1  0.0000000  1.6024720  3
   2670   2671   2683   2695     1  0.0000000  0.6508444  3
   2670   2674   2686   2692     1  0.0000000  0.6508444  3
   2670   2677   2680   2689     1  0.0000000  0.6508444  3
   2671   2670   2674   2686     1  0.0000000  0.6508444  3
   2671   2670   2677   2680     1  0.0000000  0.6508444  3
   2671   2683   2695   4050     1  0.0000000  0.6508444  3
   2674   2670   2671   2683     1  0.0000000  0.6508444  3
   2674   2670   2677   2680     1  0.0000000  0.6508444  3
   2674   2686   2692   4036     1  0.0000000  0.6508444  3
   2677   2670   2671   2683     1  0.0000000  0.6508444  3
   2677   2670   2674   2686     1  0.0000000  0.6508444  3
   2677   2680   2689   2698     1  0.0000000  0.6508444  3
   2683   2695   4050   4044     1  180.0000771  0.4184000  2
   2683   2695   4050   4044     1  0.0000000  1.6024720  3
   2686   2692   4036   4030     1  180.0000771  0.4184000  2
   2686   2692   4036   4030     1  0.0000000  1.6024720  3
   2692   4036   4030   4027     1  180.0000771  0.4184000  2
   2692   4036   4030   4027     1  0.0000000  1.6024720  3
   2695   4050   4044   4041     1  180.0000771  0.4184000  2
   2695   4050   4044   4041     1  0.0000000  1.6024720  3
   2700   2701   2713   2725     1  0.0000000  0.6508444  3
   2700   2704   2716   2722     1  0.0000000  0.6508444  3
   2700   2707   2710   2719     1  0.0000000  0.6508444  3
   2701   2700   2704   2716     1  0.0000000  0.6508444  3
   2701   2700   2707   2710     1  0.0000000  0.6508444  3
   2701   2713   2725   4078     1  0.0000000  0.6508444  3
   2704   2700   2701   2713     1  0.0000000  0.6508444  3
   2704   2700   2707   2710     1  0.0000000  0.6508444  3
   2704   2716   2722   4064     1  0.0000000  0.6508444  3
   2707   2700   2701   2713     1  0.0000000  0.6508444  3
   2707   2700   2704   2716     1  0.0000000  0.6508444  3
   2707   2710   2719   2728     1  0.0000000  0.6508444  3
   2713   2725   4078   4072     1  180.0000771  0.4184000  2
   2713   2725   4078   4072     1  0.0000000  1.6024720  3
   2716   2722   4064   4058     1  180.0000771  0.4184000  2
   2716   2722   4064   4058     1  0.0000000  1.6024720  3
   2722   4064   4058   4055     1  180.0000771  0.4184000  2
   2722   4064   4058   4055     1  0.0000000  1.6024720  3
   2725   4078   4072   4069     1  180.0000771  0.4184000  2
   2725   4078   4072   4069     1  0.0000000  1.6024720  3
   2730   2731   2743   2755     1  0.0000000  0.6508444  3
   2730   2734   2746   2752     1  0.0000000  0.6508444  3
   2730   2737   2740   2749     1  0.0000000  0.6508444  3
   2731   2730   2734   2746     1  0.0000000  0.6508444  3
   2731   2730   2737   2740     1  0.0000000  0.6508444  3
   2731   2743   2755   4106     1  0.0000000  0.6508444  3
   2734   2730   2731   2743     1  0.0000000  0.6508444  3
   2734   2730   2737   2740     1  0.0000000  0.6508444  3
   2734   2746   2752   4092     1  0.0000000  0.6508444  3
   2737   2730   2731   2743     1  0.0000000  0.6508444  3
   2737   2730   2734   2746     1  0.0000000  0.6508444  3
   2737   2740   2749   2758     1  0.0000000  0.6508444  3
   2743   2755   4106   4100     1  180.0000771  0.4184000  2
   2743   2755   4106   4100     1  0.0000000  1.6024720  3
   2746   2752   4092   4086     1  180.0000771  0.4184000  2
   2746   2752   4092   4086     1  0.0000000  1.6024720  3
   2752   4092   4086   4083     1  180.0000771  0.4184000  2
   2752   4092   4086   4083     1  0.0000000  1.6024720  3
   2755   4106   4100   4097     1  180.0000771  0.4184000  2
   2755   4106   4100   4097     1  0.0000000  1.6024720  3
   2760   2761   2773   2785     1  0.0000000  0.6508444  3
   2760   2764   2776   2782     1  0.0000000  0.6508444  3
   2760   2767   2770   2779     1  0.0000000  0.6508444  3
   2761   2760   2764   2776     1  0.0000000  0.6508444  3
   2761   2760   2767   2770     1  0.0000000  0.6508444  3
   2761   2773   2785   4134     1  0.0000000  0.6508444  3
   2764   2760   2761   2773     1  0.0000000  0.6508444  3
   2764   2760   2767   2770     1  0.0000000  0.6508444  3
   2764   2776   2782   4120     1  0.0000000  0.6508444  3
   2767   2760   2761   2773     1  0.0000000  0.6508444  3
   2767   2760   2764   2776     1  0.0000000  0.6508444  3
   2767   2770   2779   2788     1  0.0000000  0.6508444  3
   2773   2785   4134   4128     1  180.0000771  0.4184000  2
   2773   2785   4134   4128     1  0.0000000  1.6024720  3
   2776   2782   4120   4114     1  180.0000771  0.4184000  2
   2776   2782   4120   4114     1  0.0000000  1.6024720  3
   2782   4120   4114   4111     1  180.0000771  0.4184000  2
   2782   4120   4114   4111     1  0.0000000  1.6024720  3
   2785   4134   4128   4125     1  180.0000771  0.4184000  2
   2785   4134   4128   4125     1  0.0000000  1.6024720  3
   2790   2791   2803   2815     1  0.0000000  0.6508444  3
   2790   2794   2806   2812     1  0.0000000  0.6508444  3
   2790   2797   2800   2809     1  0.0000000  0.6508444  3
   2791   2790   2794   2806     1  0.0000000  0.6508444  3
   2791   2790   2797   2800     1  0.0000000  0.6508444  3
   2791   2803   2815   4162     1  0.0000000  0.6508444  3
   2794   2790   2791   2803     1  0.0000000  0.6508444  3
   2794   2790   2797   2800     1  0.0000000  0.6508444  3
   2794   2806   2812   4148     1  0.0000000  0.6508444  3
   2797   2790   2791   2803     1  0.0000000  0.6508444  3
   2797   2790   2794   2806     1  0.0000000  0.6508444  3
   2797   2800   2809   2818     1  0.0000000  0.6508444  3
   2803   2815   4162   4156     1  180.0000771  0.4184000  2
   2803   2815   4162   4156     1  0.0000000  1.6024720  3
   2806   2812   4148   4142     1  180.0000771  0.4184000  2
   2806   2812   4148   4142     1  0.0000000  1.6024720  3
   2812   4148   4142   4139     1  180.0000771  0.4184000  2
   2812   4148   4142   4139     1  0.0000000  1.6024720  3
   2815   4162   4156   4153     1  180.0000771  0.4184000  2
   2815   4162   4156   4153     1  0.0000000  1.6024720  3
   2820   2823   2826   2832     1  0.0000000  0.6508444  3
   2826   2823   2820   2829     1  0.0000000  0.6508444  3
   2834   2837   2840   2846     1  0.0000000  0.6508444  3
   2840   2837   2834   2843     1  0.0000000  0.6508444  3
   2848   2851   2854   2860     1  0.0000000  0.6508444  3
   2854   2851   2848   2857     1  0.0000000  0.6508444  3
   2862   2865   2868   2874     1  0.0000000  0.6508444  3
   2868   2865   2862   2871     1  0.0000000  0.6508444  3
   2876   2879   2882   2888     1  0.0000000  0.6508444  3
   2882   2879   2876   2885     1  0.0000000  0.6508444  3
   2890   2893   2896   2902     1  0.0000000  0.6508444  3
   2896   2893   2890   2899     1  0.0000000  0.6508444  3
   2904   2907   2910   2916     1  0.0000000  0.6508444  3
   2910   2907   2904   2913     1  0.0000000  0.6508444  3
   2918   2921   2924   2930     1  0.0000000  0.6508444  3
   2924   2921   2918   2927     1  0.0000000  0.6508444  3
   2932   2935   2938   2944     1  0.0000000  0.6508444  3
   2938   2935   2932   2941     1  0.0000000  0.6508444  3
   2946   2949   2952   2958     1  0.0000000  0.6508444  3
   2952   2949   2946   2955     1  0.0000000  0.6508444  3
   2960   2963   2966   2972     1  0.0000000  0.6508444  3
   2966   2963   2960   2969     1  0.0000000  0.6508444  3
   2974   2977   2980   2986     1  0.0000000  0.6508444  3
   2980   2977   2974   2983     1  0.0000000  0.6508444  3
   2988   2991   2994   3000     1  0.0000000  0.6508444  3
   2994   2991   2988   2997     1  0.0000000  0.6508444  3
   3002   3005   3008   3014     1  0.0000000  0.6508444  3
   3008   3005   3002   3011     1  0.0000000  0.6508444  3
   3016   3019   3022   3028     1  0.0000000  0.6508444  3
   3022   3019   3016   3025     1  0.0000000  0.6508444  3
   3030   3033   3036   3042     1  0.0000000  0.6508444  3
   3036   3033   3030   3039     1  0.0000000  0.6508444  3
   3044   3047   3050   3056     1  0.0000000  0.6508444  3
   3050   3047   3044   3053     1  0.0000000  0.6508444  3
   3058   3061   3064   3070     1  0.0000000  0.6508444  3
   3064   3061   3058   3067     1  0.0000000  0.6508444  3
   3072   3075   3078   3084     1  0.0000000  0.6508444  3
   3078   3075   3072   3081     1  0.0000000  0.6508444  3
   3086   3089   3092   3098     1  0.0000000  0.6508444  3
   3092   3089   3086   3095     1  0.0000000  0.6508444  3
   3100   3103   3106   3112     1  0.0000000  0.6508444  3
   3106   3103   3100   3109     1  0.0000000  0.6508444  3
   3114   3117   3120   3126     1  0.0000000  0.6508444  3
   3120   3117   3114   3123     1  0.0000000  0.6508444  3
   3128   3131   3134   3140     1  0.0000000  0.6508444  3
   3134   3131   3128   3137     1  0.0000000  0.6508444  3
   3142   3145   3148   3154     1  0.0000000  0.6508444  3
   3148   3145   3142   3151     1  0.0000000  0.6508444  3
   3156   3159   3162   3168     1  0.0000000  0.6508444  3
   3162   3159   3156   3165     1  0.0000000  0.6508444  3
   3170   3173   3176   3182     1  0.0000000  0.6508444  3
   3176   3173   3170   3179     1  0.0000000  0.6508444  3
   3184   3187   3190   3196     1  0.0000000  0.6508444  3
   3190   3187   3184   3193     1  0.0000000  0.6508444  3
   3198   3201   3204   3210     1  0.0000000  0.6508444  3
   3204   3201   3198   3207     1  0.0000000  0.6508444  3
   3212   3215   3218   3224     1  0.0000000  0.6508444  3
   3218   3215   3212   3221     1  0.0000000  0.6508444  3
   3226   3229   3232   3238     1  0.0000000  0.6508444  3
   3232   3229   3226   3235     1  0.0000000  0.6508444  3
   3240   3243   3246   3252     1  0.0000000  0.6508444  3
   3246   3243   3240   3249     1  0.0000000  0.6508444  3
   3254   3257   3260   3266     1  0.0000000  0.6508444  3
   3260   3257   3254   3263     1  0.0000000  0.6508444  3
   3268   3271   3274   3280     1  0.0000000  0.6508444  3
   3274   3271   3268   3277     1  0.0000000  0.6508444  3
   3282   3285   3288   3294     1  0.0000000  0.6508444  3
   3288   3285   3282   3291     1  0.0000000  0.6508444  3
   3296   3299   3302   3308     1  0.0000000  0.6508444  3
   3302   3299   3296   3305     1  0.0000000  0.6508444  3
   3310   3313   3316   3322     1  0.0000000  0.6508444  3
   3316   3313   3310   3319     1  0.0000000  0.6508444  3
   3324   3327   3330   3336     1  0.0000000  0.6508444  3
   3330   3327   3324   3333     1  0.0000000  0.6508444  3
   3338   3341   3344   3350     1  0.0000000  0.6508444  3
   3344   3341   3338   3347     1  0.0000000  0.6508444  3
   3352   3355   3358   3364     1  0.0000000  0.6508444  3
   3358   3355   3352   3361     1  0.0000000  0.6508444  3
   3366   3369   3372   3378     1  0.0000000  0.6508444  3
   3372   3369   3366   3375     1  0.0000000  0.6508444  3
   3380   3383   3386   3392     1  0.0000000  0.6508444  3
   3386   3383   3380   3389     1  0.0000000  0.6508444  3
   3394   3397   3400   3406     1  0.0000000  0.6508444  3
   3400   3397   3394   3403     1  0.0000000  0.6508444  3
   3408   3411   3414   3420     1  0.0000000  0.6508444  3
   3414   3411   3408   3417     1  0.0000000  0.6508444  3
   3422   3425   3428   3434     1  0.0000000  0.6508444  3
   3428   3425   3422   3431     1  0.0000000  0.6508444  3
   3436   3439   3442   3448     1  0.0000000  0.6508444  3
   3442   3439   3436   3445     1  0.0000000  0.6508444  3
   3450   3453   3456   3462     1  0.0000000  0.6508444  3
   3456   3453   3450   3459     1  0.0000000  0.6508444  3
   3464   3467   3470   3476     1  0.0000000  0.6508444  3
   3470   3467   3464   3473     1  0.0000000  0.6508444  3
   3478   3481   3484   3490     1  0.0000000  0.6508444  3
   3484   3481   3478   3487     1  0.0000000  0.6508444  3
   3492   3495   3498   3504     1  0.0000000  0.6508444  3
   3498   3495   3492   3501     1  0.0000000  0.6508444  3
   3506   3509   3512   3518     1  0.0000000  0.6508444  3
   3512   3509   3506   3515     1  0.0000000  0.6508444  3
   3520   3523   3526   3532     1  0.0000000  0.6508444  3
   3526   3523   3520   3529     1  0.0000000  0.6508444  3
   3534   3537   3540   3546     1  0.0000000  0.6508444  3
   3540   3537   3534   3543     1  0.0000000  0.6508444  3
   3548   3551   3554   3560     1  0.0000000  0.6508444  3
   3554   3551   3548   3557     1  0.0000000  0.6508444  3
   3562   3565   3568   3574     1  0.0000000  0.6508444  3
   3568   3565   3562   3571     1  0.0000000  0.6508444  3
   3576   3579   3582   3588     1  0.0000000  0.6508444  3
   3582   3579   3576   3585     1  0.0000000  0.6508444  3
   3590   3593   3596   3602     1  0.0000000  0.6508444  3
   3596   3593   3590   3599     1  0.0000000  0.6508444  3
   3604   3607   3610   3616     1  0.0000000  0.6508444  3
   3610   3607   3604   3613     1  0.0000000  0.6508444  3
   3618   3621   3624   3630     1  0.0000000  0.6508444  3
   3624   3621   3618   3627     1  0.0000000  0.6508444  3
   3632   3635   3638   3644     1  0.0000000  0.6508444  3
   3638   3635   3632   3641     1  0.0000000  0.6508444  3
   3646   3649   3652   3658     1  0.0000000  0.6508444  3
   3652   3649   3646   3655     1  0.0000000  0.6508444  3
   3660   3663   3666   3672     1  0.0000000  0.6508444  3
   3666   3663   3660   3669     1  0.0000000  0.6508444  3
   3674   3677   3680   3686     1  0.0000000  0.6508444  3
   3680   3677   3674   3683     1  0.0000000  0.6508444  3
   3688   3691   3694   3700     1  0.0000000  0.6508444  3
   3694   3691   3688   3697     1  0.0000000  0.6508444  3
   3702   3705   3708   3714     1  0.0000000  0.6508444  3
   3708   3705   3702   3711     1  0.0000000  0.6508444  3
   3716   3719   3722   3728     1  0.0000000  0.6508444  3
   3722   3719   3716   3725     1  0.0000000  0.6508444  3
   3730   3733   3736   3742     1  0.0000000  0.6508444  3
   3736   3733   3730   3739     1  0.0000000  0.6508444  3
   3744   3747   3750   3756     1  0.0000000  0.6508444  3
   3750   3747   3744   3753     1  0.0000000  0.6508444  3
   3758   3761   3764   3770     1  0.0000000  0.6508444  3
   3764   3761   3758   3767     1  0.0000000  0.6508444  3
   3772   3775   3778   3784     1  0.0000000  0.6508444  3
   3778   3775   3772   3781     1  0.0000000  0.6508444  3
   3786   3789   3792   3798     1  0.0000000  0.6508444  3
   3792   3789   3786   3795     1  0.0000000  0.6508444  3
   3800   3803   3806   3812     1  0.0000000  0.6508444  3
   3806   3803   3800   3809     1  0.0000000  0.6508444  3
   3814   3817   3820   3826     1  0.0000000  0.6508444  3
   3820   3817   3814   3823     1  0.0000000  0.6508444  3
   3828   3831   3834   3840     1  0.0000000  0.6508444  3
   3834   3831   3828   3837     1  0.0000000  0.6508444  3
   3842   3845   3848   3854     1  0.0000000  0.6508444  3
   3848   3845   3842   3851     1  0.0000000  0.6508444  3
   3856   3859   3862   3868     1  0.0000000  0.6508444  3
   3862   3859   3856   3865     1  0.0000000  0.6508444  3
   3870   3873   3876   3882     1  0.0000000  0.6508444  3
   3876   3873   3870   3879     1  0.0000000  0.6508444  3
   3884   3887   3890   3896     1  0.0000000  0.6508444  3
   3890   3887   3884   3893     1  0.0000000  0.6508444  3
   3898   3901   3904   3910     1  0.0000000  0.6508444  3
   3904   3901   3898   3907     1  0.0000000  0.6508444  3
   3912   3915   3918   3924     1  0.0000000  0.6508444  3
   3918   3915   3912   3921     1  0.0000000  0.6508444  3
   3926   3929   3932   3938     1  0.0000000  0.6508444  3
   3932   3929   3926   3935     1  0.0000000  0.6508444  3
   3940   3943   3946   3952     1  0.0000000  0.6508444  3
   3946   3943   3940   3949     1  0.0000000  0.6508444  3
   3954   3957   3960   3966     1  0.0000000  0.6508444  3
   3960   3957   3954   3963     1  0.0000000  0.6508444  3
   3968   3971   3974   3980     1  0.0000000  0.6508444  3
   3974   3971   3968   3977     1  0.0000000  0.6508444  3
   3982   3985   3988   3994     1  0.0000000  0.6508444  3
   3988   3985   3982   3991     1  0.0000000  0.6508444  3
   3996   3999   4002   4008     1  0.0000000  0.6508444  3
   4002   3999   3996   4005     1  0.0000000  0.6508444  3
   4010   4013   4016   4022     1  0.0000000  0.6508444  3
   4016   4013   4010   4019     1  0.0000000  0.6508444  3
   4024   4027   4030   4036     1  0.0000000  0.6508444  3
   4030   4027   4024   4033     1  0.0000000  0.6508444  3
   4038   4041   4044   4050     1  0.0000000  0.6508444  3
   4044   4041   4038   4047     1  0.0000000  0.6508444  3
   4052   4055   4058   4064     1  0.0000000  0.6508444  3
   4058   4055   4052   4061     1  0.0000000  0.6508444  3
   4066   4069   4072   4078     1  0.0000000  0.6508444  3
   4072   4069   4066   4075     1  0.0000000  0.6508444  3
   4080   4083   4086   4092     1  0.0000000  0.6508444  3
   4086   4083   4080   4089     1  0.0000000  0.6508444  3
   4094   4097   4100   4106     1  0.0000000  0.6508444  3
   4100   4097   4094   4103     1  0.0000000  0.6508444  3
   4108   4111   4114   4120     1  0.0000000  0.6508444  3
   4114   4111   4108   4117     1  0.0000000  0.6508444  3
   4122   4125   4128   4134     1  0.0000000  0.6508444  3
   4128   4125   4122   4131     1  0.0000000  0.6508444  3
   4136   4139   4142   4148     1  0.0000000  0.6508444  3
   4142   4139   4136   4145     1  0.0000000  0.6508444  3
   4150   4153   4156   4162     1  0.0000000  0.6508444  3
   4156   4153   4150   4159     1  0.0000000  0.6508444  3
      1      2     14     15     1  0.0000000  0.6508444  3
      1      2     14     16     1  0.0000000  0.6508444  3
      1      5     17     18     1  0.0000000  0.6508444  3
      1      5     17     19     1  0.0000000  0.6508444  3
      1      8     11     12     1  0.0000000  0.6508444  3
      1      8     11     13     1  0.0000000  0.6508444  3
      2      1      5      6     1  0.0000000  0.6508444  3
      2      1      5      7     1  0.0000000  0.6508444  3
      2      1      8      9     1  0.0000000  0.6508444  3
      2      1      8     10     1  0.0000000  0.6508444  3
      2     14     26     27     1  0.0000000  0.6508444  3
      2     14     26     28     1  0.0000000  0.6508444  3
      5      1      2      3     1  0.0000000  0.6508444  3
      8      1      2      3     1  0.0000000  0.6508444  3
     29      1      2      3     1  0.0000000  0.6508444  3
      3      2     14     26     1  0.0000000  0.6508444  3
      3      2     14     15     1  0.0000000  0.6508444  3
      3      2     14     16     1  0.0000000  0.6508444  3
      5      1      2      4     1  0.0000000  0.6508444  3
      8      1      2      4     1  0.0000000  0.6508444  3
     29      1      2      4     1  0.0000000  0.6508444  3
      4      2     14     26     1  0.0000000  0.6508444  3
      4      2     14     15     1  0.0000000  0.6508444  3
      4      2     14     16     1  0.0000000  0.6508444  3
      5      1      8      9     1  0.0000000  0.6508444  3
      5      1      8     10     1  0.0000000  0.6508444  3
      5     17     20     21     1  0.0000000  0.6508444  3
      5     17     20     22     1  0.0000000  0.6508444  3
      8      1      5      6     1  0.0000000  0.6508444  3
     29      1      5      6     1  0.0000000  0.6508444  3
      6      5     17     20     1  0.0000000  0.6508444  3
      6      5     17     18     1  0.0000000  0.6508444  3
      6      5     17     19     1  0.0000000  0.6508444  3
      8      1      5      7     1  0.0000000  0.6508444  3
     29      1      5      7     1  0.0000000  0.6508444  3
      7      5     17     20     1  0.0000000  0.6508444  3
      7      5     17     18     1  0.0000000  0.6508444  3
      7      5     17     19     1  0.0000000  0.6508444  3
      8     11     23     24     1  0.0000000  0.6508444  3
      8     11     23     25     1  0.0000000  0.6508444  3
     29      1      8      9     1  0.0000000  0.6508444  3
      9      8     11     23     1  0.0000000  0.6508444  3
      9      8     11     12     1  0.0000000  0.6508444  3
      9      8     11     13     1  0.0000000  0.6508444  3
     29      1      8     10     1  0.0000000  0.6508444  3
     10      8     11     23     1  0.0000000  0.6508444  3
     10      8     11     12     1  0.0000000  0.6508444  3
     10      8     11     13     1  0.0000000  0.6508444  3
     29      1      8     11     1  0.0000000  0.6508444  3
     12     11     23     88     1  0.0000000  1.0460000  1
     12     11     23     88     1  0.0000000  0.0000000  3
     12     11     23     24     1  0.0000000  0.6508444  3
     12     11     23     25     1  0.0000000  0.6508444  3
     13     11     23     88     1  0.0000000  1.0460000  1
     13     11     23     88     1  0.0000000  0.0000000  3
     13     11     23     24     1  0.0000000  0.6508444  3
     13     11     23     25     1  0.0000000  0.6508444  3
     29      1      2     14     1  0.0000000  0.6508444  3
     15     14     26    118     1  0.0000000  1.0460000  1
     15     14     26    118     1  0.0000000  0.0000000  3
     15     14     26     27     1  0.0000000  0.6508444  3
     15     14     26     28     1  0.0000000  0.6508444  3
     16     14     26    118     1  0.0000000  1.0460000  1
     16     14     26    118     1  0.0000000  0.0000000  3
     16     14     26     27     1  0.0000000  0.6508444  3
     16     14     26     28     1  0.0000000  0.6508444  3
     29      1      5     17     1  0.0000000  0.6508444  3
     18     17     20     58     1  0.0000000  1.0460000  1
     18     17     20     58     1  0.0000000  0.0000000  3
     18     17     20     21     1  0.0000000  0.6508444  3
     18     17     20     22     1  0.0000000  0.6508444  3
     19     17     20     58     1  0.0000000  1.0460000  1
     19     17     20     58     1  0.0000000  0.0000000  3
     19     17     20     21     1  0.0000000  0.6508444  3
     19     17     20     22     1  0.0000000  0.6508444  3
     20     58     49     50     1  0.0000000  1.6038667  3
     20     58     49     51     1  0.0000000  1.6038667  3
     21     20     58     49     1  0.0000000  1.6038667  3
     22     20     58     49     1  0.0000000  1.6038667  3
     23     88     79     80     1  0.0000000  1.6038667  3
     23     88     79     81     1  0.0000000  1.6038667  3
     24     23     88     79     1  0.0000000  1.6038667  3
     25     23     88     79     1  0.0000000  1.6038667  3
     26    118    109    110     1  0.0000000  1.6038667  3
     26    118    109    111     1  0.0000000  1.6038667  3
     27     26    118    109     1  0.0000000  1.6038667  3
     28     26    118    109     1  0.0000000  1.6038667  3
     30     31     43     44     1  0.0000000  0.6508444  3
     30     31     43     45     1  0.0000000  0.6508444  3
     30     34     46     47     1  0.0000000  0.6508444  3
     30     34     46     48     1  0.0000000  0.6508444  3
     30     37     40     41     1  0.0000000  0.6508444  3
     30     37     40     42     1  0.0000000  0.6508444  3
     31     30     34     35     1  0.0000000  0.6508444  3
     31     30     34     36     1  0.0000000  0.6508444  3
     31     30     37     38     1  0.0000000  0.6508444  3
     31     30     37     39     1  0.0000000  0.6508444  3
     31     43     55     56     1  0.0000000  0.6508444  3
     31     43     55     57     1  0.0000000  0.6508444  3
     32     31     30     34     1  0.0000000  0.6508444  3
     32     31     30     37     1  0.0000000  0.6508444  3
     32     31     30     59     1  0.0000000  0.6508444  3
     32     31     43     55     1  0.0000000  0.6508444  3
     32     31     43     44     1  0.0000000  0.6508444  3
     32     31     43     45     1  0.0000000  0.6508444  3
     33     31     30     34     1  0.0000000  0.6508444  3
     33     31     30     37     1  0.0000000  0.6508444  3
     33     31     30     59     1  0.0000000  0.6508444  3
     33     31     43     55     1  0.0000000  0.6508444  3
     33     31     43     44     1  0.0000000  0.6508444  3
     33     31     43     45     1  0.0000000  0.6508444  3
     34     30     37     38     1  0.0000000  0.6508444  3
     34     30     37     39     1  0.0000000  0.6508444  3
     34     46     52     53     1  0.0000000  0.6508444  3
     34     46     52     54     1  0.0000000  0.6508444  3
     35     34     30     37     1  0.0000000  0.6508444  3
     35     34     30     59     1  0.0000000  0.6508444  3
     35     34     46     52     1  0.0000000  0.6508444  3
     35     34     46     47     1  0.0000000  0.6508444  3
     35     34     46     48     1  0.0000000  0.6508444  3
     36     34     30     37     1  0.0000000  0.6508444  3
     36     34     30     59     1  0.0000000  0.6508444  3
     36     34     46     52     1  0.0000000  0.6508444  3
     36     34     46     47     1  0.0000000  0.6508444  3
     36     34     46     48     1  0.0000000  0.6508444  3
     37     40     49     50     1  0.0000000  0.6508444  3
     37     40     49     51     1  0.0000000  0.6508444  3
     38     37     30     59     1  0.0000000  0.6508444  3
     38     37     40     49     1  0.0000000  0.6508444  3
     38     37     40     41     1  0.0000000  0.6508444  3
     38     37     40     42     1  0.0000000  0.6508444  3
     39     37     30     59     1  0.0000000  0.6508444  3
     39     37     40     49     1  0.0000000  0.6508444  3
     39     37     40     41     1  0.0000000  0.6508444  3
     39     37     40     42     1  0.0000000  0.6508444  3
     40     37     30     59     1  0.0000000  0.6508444  3
     41     40     49     58     1  0.0000000  1.0460000  1
     41     40     49     58     1  0.0000000  0.0000000  3
     41     40     49     50     1  0.0000000  0.6508444  3
     41     40     49     51     1  0.0000000  0.6508444  3
     42     40     49     58     1  0.0000000  1.0460000  1
     42     40     49     58     1  0.0000000  0.0000000  3
     42     40     49     50     1  0.0000000  0.6508444  3
     42     40     49     51     1  0.0000000  0.6508444  3
     43     31     30     59     1  0.0000000  0.6508444  3
     44     43     55    178     1  0.0000000  1.0460000  1
     44     43     55    178     1  0.0000000  0.0000000  3
     44     43     55     56     1  0.0000000  0.6508444  3
     44     43     55     57     1  0.0000000  0.6508444  3
     45     43     55    178     1  0.0000000  1.0460000  1
     45     43     55    178     1  0.0000000  0.0000000  3
     45     43     55     56     1  0.0000000  0.6508444  3
     45     43     55     57     1  0.0000000  0.6508444  3
     46     34     30     59     1  0.0000000  0.6508444  3
     47     46     52    148     1  0.0000000  1.0460000  1
     47     46     52    148     1  0.0000000  0.0000000  3
     47     46     52     53     1  0.0000000  0.6508444  3
     47     46     52     54     1  0.0000000  0.6508444  3
     48     46     52    148     1  0.0000000  1.0460000  1
     48     46     52    148     1  0.0000000  0.0000000  3
     48     46     52     53     1  0.0000000  0.6508444  3
     48     46     52     54     1  0.0000000  0.6508444  3
     52    148    139    140     1  0.0000000  1.6038667  3
     52    148    139    141     1  0.0000000  1.6038667  3
     53     52    148    139     1  0.0000000  1.6038667  3
     54     52    148    139     1  0.0000000  1.6038667  3
     55    178    169    170     1  0.0000000  1.6038667  3
     55    178    169    171     1  0.0000000  1.6038667  3
     56     55    178    169     1  0.0000000  1.6038667  3
     57     55    178    169     1  0.0000000  1.6038667  3
     60     61     73     74     1  0.0000000  0.6508444  3
     60     61     73     75     1  0.0000000  0.6508444  3
     60     64     76     77     1  0.0000000  0.6508444  3
     60     64     76     78     1  0.0000000  0.6508444  3
     60     67     70     71     1  0.0000000  0.6508444  3
     60     67     70     72     1  0.0000000  0.6508444  3
     61     60     64     65     1  0.0000000  0.6508444  3
     61     60     64     66     1  0.0000000  0.6508444  3
     61     60     67     68     1  0.0000000  0.6508444  3
     61     60     67     69     1  0.0000000  0.6508444  3
     61     73     85     86     1  0.0000000  0.6508444  3
     61     73     85     87     1  0.0000000  0.6508444  3
     62     61     60     64     1  0.0000000  0.6508444  3
     62     61     60     67     1  0.0000000  0.6508444  3
     62     61     60     89     1  0.0000000  0.6508444  3
     62     61     73     85     1  0.0000000  0.6508444  3
     62     61     73     74     1  0.0000000  0.6508444  3
     62     61     73     75     1  0.0000000  0.6508444  3
     63     61     60     64     1  0.0000000  0.6508444  3
     63     61     60     67     1  0.0000000  0.6508444  3
     63     61     60     89     1  0.0000000  0.6508444  3
     63     61     73     85     1  0.0000000  0.6508444  3
     63     61     73     74     1  0.0000000  0.6508444  3
     63     61     73     75     1  0.0000000  0.6508444  3
     64     60     67     68     1  0.0000000  0.6508444  3
     64     60     67     69     1  0.0000000  0.6508444  3
     64     76     82     83     1  0.0000000  0.6508444  3
     64     76     82     84     1  0.0000000  0.6508444  3
     65     64     60     67     1  0.0000000  0.6508444  3
     65     64     60     89     1  0.0000000  0.6508444  3
     65     64     76     82     1  0.0000000  0.6508444  3
     65     64     76     77     1  0.0000000  0.6508444  3
     65     64     76     78     1  0.0000000  0.6508444  3
     66     64     60     67     1  0.0000000  0.6508444  3
     66     64     60     89     1  0.0000000  0.6508444  3
     66     64     76     82     1  0.0000000  0.6508444  3
     66     64     76     77     1  0.0000000  0.6508444  3
     66     64     76     78     1  0.0000000  0.6508444  3
     67     70     79     80     1  0.0000000  0.6508444  3
     67     70     79     81     1  0.0000000  0.6508444  3
     68     67     60     89     1  0.0000000  0.6508444  3
     68     67     70     79     1  0.0000000  0.6508444  3
     68     67     70     71     1  0.0000000  0.6508444  3
     68     67     70     72     1  0.0000000  0.6508444  3
     69     67     60     89     1  0.0000000  0.6508444  3
     69     67     70     79     1  0.0000000  0.6508444  3
     69     67     70     71     1  0.0000000  0.6508444  3
     69     67     70     72     1  0.0000000  0.6508444  3
     70     67     60     89     1  0.0000000  0.6508444  3
     71     70     79     88     1  0.0000000  1.0460000  1
     71     70     79     88     1  0.0000000  0.0000000  3
     71     70     79     80     1  0.0000000  0.6508444  3
     71     70     79     81     1  0.0000000  0.6508444  3
     72     70     79     88     1  0.0000000  1.0460000  1
     72     70     79     88     1  0.0000000  0.0000000  3
     72     70     79     80     1  0.0000000  0.6508444  3
     72     70     79     81     1  0.0000000  0.6508444  3
     73     61     60     89     1  0.0000000  0.6508444  3
     74     73     85    238     1  0.0000000  1.0460000  1
     74     73     85    238     1  0.0000000  0.0000000  3
     74     73     85     86     1  0.0000000  0.6508444  3
     74     73     85     87     1  0.0000000  0.6508444  3
     75     73     85    238     1  0.0000000  1.0460000  1
     75     73     85    238     1  0.0000000  0.0000000  3
     75     73     85     86     1  0.0000000  0.6508444  3
     75     73     85     87     1  0.0000000  0.6508444  3
     76     64     60     89     1  0.0000000  0.6508444  3
     77     76     82    208     1  0.0000000  1.0460000  1
     77     76     82    208     1  0.0000000  0.0000000  3
     77     76     82     83     1  0.0000000  0.6508444  3
     77     76     82     84     1  0.0000000  0.6508444  3
     78     76     82    208     1  0.0000000  1.0460000  1
     78     76     82    208     1  0.0000000  0.0000000  3
     78     76     82     83     1  0.0000000  0.6508444  3
     78     76     82     84     1  0.0000000  0.6508444  3
     82    208    199    200     1  0.0000000  1.6038667  3
     82    208    199    201     1  0.0000000  1.6038667  3
     83     82    208    199     1  0.0000000  1.6038667  3
     84     82    208    199     1  0.0000000  1.6038667  3
     85    238    229    230     1  0.0000000  1.6038667  3
     85    238    229    231     1  0.0000000  1.6038667  3
     86     85    238    229     1  0.0000000  1.6038667  3
     87     85    238    229     1  0.0000000  1.6038667  3
     90     91    103    104     1  0.0000000  0.6508444  3
     90     91    103    105     1  0.0000000  0.6508444  3
     90     94    106    107     1  0.0000000  0.6508444  3
     90     94    106    108     1  0.0000000  0.6508444  3
     90     97    100    101     1  0.0000000  0.6508444  3
     90     97    100    102     1  0.0000000  0.6508444  3
     91     90     94     95     1  0.0000000  0.6508444  3
     91     90     94     96     1  0.0000000  0.6508444  3
     91     90     97     98     1  0.0000000  0.6508444  3
     91     90     97     99     1  0.0000000  0.6508444  3
     91    103    115    116     1  0.0000000  0.6508444  3
     91    103    115    117     1  0.0000000  0.6508444  3
     92     91     90     94     1  0.0000000  0.6508444  3
     92     91     90     97     1  0.0000000  0.6508444  3
     92     91     90    119     1  0.0000000  0.6508444  3
     92     91    103    115     1  0.0000000  0.6508444  3
     92     91    103    104     1  0.0000000  0.6508444  3
     92     91    103    105     1  0.0000000  0.6508444  3
     93     91     90     94     1  0.0000000  0.6508444  3
     93     91     90     97     1  0.0000000  0.6508444  3
     93     91     90    119     1  0.0000000  0.6508444  3
     93     91    103    115     1  0.0000000  0.6508444  3
     93     91    103    104     1  0.0000000  0.6508444  3
     93     91    103    105     1  0.0000000  0.6508444  3
     94     90     97     98     1  0.0000000  0.6508444  3
     94     90     97     99     1  0.0000000  0.6508444  3
     94    106    112    113     1  0.0000000  0.6508444  3
     94    106    112    114     1  0.0000000  0.6508444  3
     95     94     90     97     1  0.0000000  0.6508444  3
     95     94     90    119     1  0.0000000  0.6508444  3
     95     94    106    112     1  0.0000000  0.6508444  3
     95     94    106    107     1  0.0000000  0.6508444  3
     95     94    106    108     1  0.0000000  0.6508444  3
     96     94     90     97     1  0.0000000  0.6508444  3
     96     94     90    119     1  0.0000000  0.6508444  3
     96     94    106    112     1  0.0000000  0.6508444  3
     96     94    106    107     1  0.0000000  0.6508444  3
     96     94    106    108     1  0.0000000  0.6508444  3
     97    100    109    110     1  0.0000000  0.6508444  3
     97    100    109    111     1  0.0000000  0.6508444  3
     98     97     90    119     1  0.0000000  0.6508444  3
     98     97    100    109     1  0.0000000  0.6508444  3
     98     97    100    101     1  0.0000000  0.6508444  3
     98     97    100    102     1  0.0000000  0.6508444  3
     99     97     90    119     1  0.0000000  0.6508444  3
     99     97    100    109     1  0.0000000  0.6508444  3
     99     97    100    101     1  0.0000000  0.6508444  3
     99     97    100    102     1  0.0000000  0.6508444  3
    100     97     90    119     1  0.0000000  0.6508444  3
    101    100    109    118     1  0.0000000  1.0460000  1
    101    100    109    118     1  0.0000000  0.0000000  3
    101    100    109    110     1  0.0000000  0.6508444  3
    101    100    109    111     1  0.0000000  0.6508444  3
    102    100    109    118     1  0.0000000  1.0460000  1
    102    100    109    118     1  0.0000000  0.0000000  3
    102    100    109    110     1  0.0000000  0.6508444  3
    102    100    109    111     1  0.0000000  0.6508444  3
    103     91     90    119     1  0.0000000  0.6508444  3
    104    103    115    298     1  0.0000000  1.0460000  1
    104    103    115    298     1  0.0000000  0.0000000  3
    104    103    115    116     1  0.0000000  0.6508444  3
    104    103    115    117     1  0.0000000  0.6508444  3
    105    103    115    298     1  0.0000000  1.0460000  1
    105    103    115    298     1  0.0000000  0.0000000  3
    105    103    115    116     1  0.0000000  0.6508444  3
    105    103    115    117     1  0.0000000  0.6508444  3
    106     94     90    119     1  0.0000000  0.6508444  3
    107    106    112    268     1  0.0000000  1.0460000  1
    107    106    112    268     1  0.0000000  0.0000000  3
    107    106    112    113     1  0.0000000  0.6508444  3
    107    106    112    114     1  0.0000000  0.6508444  3
    108    106    112    268     1  0.0000000  1.0460000  1
    108    106    112    268     1  0.0000000  0.0000000  3
    108    106    112    113     1  0.0000000  0.6508444  3
    108    106    112    114     1  0.0000000  0.6508444  3
    112    268    259    260     1  0.0000000  1.6038667  3
    112    268    259    261     1  0.0000000  1.6038667  3
    113    112    268    259     1  0.0000000  1.6038667  3
    114    112    268    259     1  0.0000000  1.6038667  3
    115    298    289    290     1  0.0000000  1.6038667  3
    115    298    289    291     1  0.0000000  1.6038667  3
    116    115    298    289     1  0.0000000  1.6038667  3
    117    115    298    289     1  0.0000000  1.6038667  3
    120    121    133    134     1  0.0000000  0.6508444  3
    120    121    133    135     1  0.0000000  0.6508444  3
    120    124    136    137     1  0.0000000  0.6508444  3
    120    124    136    138     1  0.0000000  0.6508444  3
    120    127    130    131     1  0.0000000  0.6508444  3
    120    127    130    132     1  0.0000000  0.6508444  3
    121    120    124    125     1  0.0000000  0.6508444  3
    121    120    124    126     1  0.0000000  0.6508444  3
    121    120    127    128     1  0.0000000  0.6508444  3
    121    120    127    129     1  0.0000000  0.6508444  3
    121    133    145    146     1  0.0000000  0.6508444  3
    121    133    145    147     1  0.0000000  0.6508444  3
    122    121    120    124     1  0.0000000  0.6508444  3
    122    121    120    127     1  0.0000000  0.6508444  3
    122    121    120    149     1  0.0000000  0.6508444  3
    122    121    133    145     1  0.0000000  0.6508444  3
    122    121    133    134     1  0.0000000  0.6508444  3
    122    121    133    135     1  0.0000000  0.6508444  3
    123    121    120    124     1  0.0000000  0.6508444  3
    123    121    120    127     1  0.0000000  0.6508444  3
    123    121    120    149     1  0.0000000  0.6508444  3
    123    121    133    145     1  0.0000000  0.6508444  3
    123    121    133    134     1  0.0000000  0.6508444  3
    123    121    133    135     1  0.0000000  0.6508444  3
    124    120    127    128     1  0.0000000  0.6508444  3
    124    120    127    129     1  0.0000000  0.6508444  3
    124    136    142    143     1  0.0000000  0.6508444  3
    124    136    142    144     1  0.0000000  0.6508444  3
    125    124    120    127     1  0.0000000  0.6508444  3
    125    124    120    149     1  0.0000000  0.6508444  3
    125    124    136    142     1  0.0000000  0.6508444  3
    125    124    136    137     1  0.0000000  0.6508444  3
    125    124    136    138     1  0.0000000  0.6508444  3
    126    124    120    127     1  0.0000000  0.6508444  3
    126    124    120    149     1  0.0000000  0.6508444  3
    126    124    136    142     1  0.0000000  0.6508444  3
    126    124    136    137     1  0.0000000  0.6508444  3
    126    124    136    138     1  0.0000000  0.6508444  3
    127    130    139    140     1  0.0000000  0.6508444  3
    127    130    139    141     1  0.0000000  0.6508444  3
    128    127    120    149     1  0.0000000  0.6508444  3
    128    127    130    139     1  0.0000000  0.6508444  3
    128    127    130    131     1  0.0000000  0.6508444  3
    128    127    130    132     1  0.0000000  0.6508444  3
    129    127    120    149     1  0.0000000  0.6508444  3
    129    127    130    139     1  0.0000000  0.6508444  3
    129    127    130    131     1  0.0000000  0.6508444  3
    129    127    130    132     1  0.0000000  0.6508444  3
    130    127    120    149     1  0.0000000  0.6508444  3
    131    130    139    148     1  0.0000000  1.0460000  1
    131    130    139    148     1  0.0000000  0.0000000  3
    131    130    139    140     1  0.0000000  0.6508444  3
    131    130    139    141     1  0.0000000  0.6508444  3
    132    130    139    148     1  0.0000000  1.0460000  1
    132    130    139    148     1  0.0000000  0.0000000  3
    132    130    139    140     1  0.0000000  0.6508444  3
    132    130    139    141     1  0.0000000  0.6508444  3
    133    121    120    149     1  0.0000000  0.6508444  3
    134    133    145    358     1  0.0000000  1.0460000  1
    134    133    145    358     1  0.0000000  0.0000000  3
    134    133    145    146     1  0.0000000  0.6508444  3
    134    133    145    147     1  0.0000000  0.6508444  3
    135    133    145    358     1  0.0000000  1.0460000  1
    135    133    145    358     1  0.0000000  0.0000000  3
    135    133    145    146     1  0.0000000  0.6508444  3
    135    133    145    147     1  0.0000000  0.6508444  3
    136    124    120    149     1  0.0000000  0.6508444  3
    137    136    142    328     1  0.0000000  1.0460000  1
    137    136    142    328     1  0.0000000  0.0000000  3
    137    136    142    143     1  0.0000000  0.6508444  3
    137    136    142    144     1  0.0000000  0.6508444  3
    138    136    142    328     1  0.0000000  1.0460000  1
    138    136    142    328     1  0.0000000  0.0000000  3
    138    136    142    143     1  0.0000000  0.6508444  3
    138    136    142    144     1  0.0000000  0.6508444  3
    142    328    319    320     1  0.0000000  1.6038667  3
    142    328    319    321     1  0.0000000  1.6038667  3
    143    142    328    319     1  0.0000000  1.6038667  3
    144    142    328    319     1  0.0000000  1.6038667  3
    145    358    349    350     1  0.0000000  1.6038667  3
    145    358    349    351     1  0.0000000  1.6038667  3
    146    145    358    349     1  0.0000000  1.6038667  3
    147    145    358    349     1  0.0000000  1.6038667  3
    150    151    163    164     1  0.0000000  0.6508444  3
    150    151    163    165     1  0.0000000  0.6508444  3
    150    154    166    167     1  0.0000000  0.6508444  3
    150    154    166    168     1  0.0000000  0.6508444  3
    150    157    160    161     1  0.0000000  0.6508444  3
    150    157    160    162     1  0.0000000  0.6508444  3
    151    150    154    155     1  0.0000000  0.6508444  3
    151    150    154    156     1  0.0000000  0.6508444  3
    151    150    157    158     1  0.0000000  0.6508444  3
    151    150    157    159     1  0.0000000  0.6508444  3
    151    163    175    176     1  0.0000000  0.6508444  3
    151    163    175    177     1  0.0000000  0.6508444  3
    152    151    150    154     1  0.0000000  0.6508444  3
    152    151    150    157     1  0.0000000  0.6508444  3
    152    151    150    179     1  0.0000000  0.6508444  3
    152    151    163    175     1  0.0000000  0.6508444  3
    152    151    163    164     1  0.0000000  0.6508444  3
    152    151    163    165     1  0.0000000  0.6508444  3
    153    151    150    154     1  0.0000000  0.6508444  3
    153    151    150    157     1  0.0000000  0.6508444  3
    153    151    150    179     1  0.0000000  0.6508444  3
    153    151    163    175     1  0.0000000  0.6508444  3
    153    151    163    164     1  0.0000000  0.6508444  3
    153    151    163    165     1  0.0000000  0.6508444  3
    154    150    157    158     1  0.0000000  0.6508444  3
    154    150    157    159     1  0.0000000  0.6508444  3
    154    166    172    173     1  0.0000000  0.6508444  3
    154    166    172    174     1  0.0000000  0.6508444  3
    155    154    150    157     1  0.0000000  0.6508444  3
    155    154    150    179     1  0.0000000  0.6508444  3
    155    154    166    172     1  0.0000000  0.6508444  3
    155    154    166    167     1  0.0000000  0.6508444  3
    155    154    166    168     1  0.0000000  0.6508444  3
    156    154    150    157     1  0.0000000  0.6508444  3
    156    154    150    179     1  0.0000000  0.6508444  3
    156    154    166    172     1  0.0000000  0.6508444  3
    156    154    166    167     1  0.0000000  0.6508444  3
    156    154    166    168     1  0.0000000  0.6508444  3
    157    160    169    170     1  0.0000000  0.6508444  3
    157    160    169    171     1  0.0000000  0.6508444  3
    158    157    150    179     1  0.0000000  0.6508444  3
    158    157    160    169     1  0.0000000  0.6508444  3
    158    157    160    161     1  0.0000000  0.6508444  3
    158    157    160    162     1  0.0000000  0.6508444  3
    159    157    150    179     1  0.0000000  0.6508444  3
    159    157    160    169     1  0.0000000  0.6508444  3
    159    157    160    161     1  0.0000000  0.6508444  3
    159    157    160    162     1  0.0000000  0.6508444  3
    160    157    150    179     1  0.0000000  0.6508444  3
    161    160    169    178     1  0.0000000  1.0460000  1
    161    160    169    178     1  0.0000000  0.0000000  3
    161    160    169    170     1  0.0000000  0.6508444  3
    161    160    169    171     1  0.0000000  0.6508444  3
    162    160    169    178     1  0.0000000  1.0460000  1
    162    160    169    178     1  0.0000000  0.0000000  3
    162    160    169    170     1  0.0000000  0.6508444  3
    162    160    169    171     1  0.0000000  0.6508444  3
    163    151    150    179     1  0.0000000  0.6508444  3
    164    163    175    418     1  0.0000000  1.0460000  1
    164    163    175    418     1  0.0000000  0.0000000  3
    164    163    175    176     1  0.0000000  0.6508444  3
    164    163    175    177     1  0.0000000  0.6508444  3
    165    163    175    418     1  0.0000000  1.0460000  1
    165    163    175    418     1  0.0000000  0.0000000  3
    165    163    175    176     1  0.0000000  0.6508444  3
    165    163    175    177     1  0.0000000  0.6508444  3
    166    154    150    179     1  0.0000000  0.6508444  3
    167    166    172    388     1  0.0000000  1.0460000  1
    167    166    172    388     1  0.0000000  0.0000000  3
    167    166    172    173     1  0.0000000  0.6508444  3
    167    166    172    174     1  0.0000000  0.6508444  3
    168    166    172    388     1  0.0000000  1.0460000  1
    168    166    172    388     1  0.0000000  0.0000000  3
    168    166    172    173     1  0.0000000  0.6508444  3
    168    166    172    174     1  0.0000000  0.6508444  3
    172    388    379    380     1  0.0000000  1.6038667  3
    172    388    379    381     1  0.0000000  1.6038667  3
    173    172    388    379     1  0.0000000  1.6038667  3
    174    172    388    379     1  0.0000000  1.6038667  3
    175    418    409    410     1  0.0000000  1.6038667  3
    175    418    409    411     1  0.0000000  1.6038667  3
    176    175    418    409     1  0.0000000  1.6038667  3
    177    175    418    409     1  0.0000000  1.6038667  3
    180    181    193    194     1  0.0000000  0.6508444  3
    180    181    193    195     1  0.0000000  0.6508444  3
    180    184    196    197     1  0.0000000  0.6508444  3
    180    184    196    198     1  0.0000000  0.6508444  3
    180    187    190    191     1  0.0000000  0.6508444  3
    180    187    190    192     1  0.0000000  0.6508444  3
    181    180    184    185     1  0.0000000  0.6508444  3
    181    180    184    186     1  0.0000000  0.6508444  3
    181    180    187    188     1  0.0000000  0.6508444  3
    181    180    187    189     1  0.0000000  0.6508444  3
    181    193    205    206     1  0.0000000  0.6508444  3
    181    193    205    207     1  0.0000000  0.6508444  3
    182    181    180    184     1  0.0000000  0.6508444  3
    182    181    180    187     1  0.0000000  0.6508444  3
    182    181    180    209     1  0.0000000  0.6508444  3
    182    181    193    205     1  0.0000000  0.6508444  3
    182    181    193    194     1  0.0000000  0.6508444  3
    182    181    193    195     1  0.0000000  0.6508444  3
    183    181    180    184     1  0.0000000  0.6508444  3
    183    181    180    187     1  0.0000000  0.6508444  3
    183    181    180    209     1  0.0000000  0.6508444  3
    183    181    193    205     1  0.0000000  0.6508444  3
    183    181    193    194     1  0.0000000  0.6508444  3
    183    181    193    195     1  0.0000000  0.6508444  3
    184    180    187    188     1  0.0000000  0.6508444  3
    184    180    187    189     1  0.0000000  0.6508444  3
    184    196    202    203     1  0.0000000  0.6508444  3
    184    196    202    204     1  0.0000000  0.6508444  3
    185    184    180    187     1  0.0000000  0.6508444  3
    185    184    180    209     1  0.0000000  0.6508444  3
    185    184    196    202     1  0.0000000  0.6508444  3
    185    184    196    197     1  0.0000000  0.6508444  3
    185    184    196    198     1  0.0000000  0.6508444  3
    186    184    180    187     1  0.0000000  0.6508444  3
    186    184    180    209     1  0.0000000  0.6508444  3
    186    184    196    202     1  0.0000000  0.6508444  3
    186    184    196    197     1  0.0000000  0.6508444  3
    186    184    196    198     1  0.0000000  0.6508444  3
    187    190    199    200     1  0.0000000  0.6508444  3
    187    190    199    201     1  0.0000000  0.6508444  3
    188    187    180    209     1  0.0000000  0.6508444  3
    188    187    190    199     1  0.0000000  0.6508444  3
    188    187    190    191     1  0.0000000  0.6508444  3
    188    187    190    192     1  0.0000000  0.6508444  3
    189    187    180    209     1  0.0000000  0.6508444  3
    189    187    190    199     1  0.0000000  0.6508444  3
    189    187    190    191     1  0.0000000  0.6508444  3
    189    187    190    192     1  0.0000000  0.6508444  3
    190    187    180    209     1  0.0000000  0.6508444  3
    191    190    199    208     1  0.0000000  1.0460000  1
    191    190    199    208     1  0.0000000  0.0000000  3
    191    190    199    200     1  0.0000000  0.6508444  3
    191    190    199    201     1  0.0000000  0.6508444  3
    192    190    199    208     1  0.0000000  1.0460000  1
    192    190    199    208     1  0.0000000  0.0000000  3
    192    190    199    200     1  0.0000000  0.6508444  3
    192    190    199    201     1  0.0000000  0.6508444  3
    193    181    180    209     1  0.0000000  0.6508444  3
    194    193    205    478     1  0.0000000  1.0460000  1
    194    193    205    478     1  0.0000000  0.0000000  3
    194    193    205    206     1  0.0000000  0.6508444  3
    194    193    205    207     1  0.0000000  0.6508444  3
    195    193    205    478     1  0.0000000  1.0460000  1
    195    193    205    478     1  0.0000000  0.0000000  3
    195    193    205    206     1  0.0000000  0.6508444  3
    195    193    205    207     1  0.0000000  0.6508444  3
    196    184    180    209     1  0.0000000  0.6508444  3
    197    196    202    448     1  0.0000000  1.0460000  1
    197    196    202    448     1  0.0000000  0.0000000  3
    197    196    202    203     1  0.0000000  0.6508444  3
    197    196    202    204     1  0.0000000  0.6508444  3
    198    196    202    448     1  0.0000000  1.0460000  1
    198    196    202    448     1  0.0000000  0.0000000  3
    198    196    202    203     1  0.0000000  0.6508444  3
    198    196    202    204     1  0.0000000  0.6508444  3
    202    448    439    440     1  0.0000000  1.6038667  3
    202    448    439    441     1  0.0000000  1.6038667  3
    203    202    448    439     1  0.0000000  1.6038667  3
    204    202    448    439     1  0.0000000  1.6038667  3
    205    478    469    470     1  0.0000000  1.6038667  3
    205    478    469    471     1  0.0000000  1.6038667  3
    206    205    478    469     1  0.0000000  1.6038667  3
    207    205    478    469     1  0.0000000  1.6038667  3
    210    211    223    224     1  0.0000000  0.6508444  3
    210    211    223    225     1  0.0000000  0.6508444  3
    210    214    226    227     1  0.0000000  0.6508444  3
    210    214    226    228     1  0.0000000  0.6508444  3
    210    217    220    221     1  0.0000000  0.6508444  3
    210    217    220    222     1  0.0000000  0.6508444  3
    211    210    214    215     1  0.0000000  0.6508444  3
    211    210    214    216     1  0.0000000  0.6508444  3
    211    210    217    218     1  0.0000000  0.6508444  3
    211    210    217    219     1  0.0000000  0.6508444  3
    211    223    235    236     1  0.0000000  0.6508444  3
    211    223    235    237     1  0.0000000  0.6508444  3
    212    211    210    214     1  0.0000000  0.6508444  3
    212    211    210    217     1  0.0000000  0.6508444  3
    212    211    210    239     1  0.0000000  0.6508444  3
    212    211    223    235     1  0.0000000  0.6508444  3
    212    211    223    224     1  0.0000000  0.6508444  3
    212    211    223    225     1  0.0000000  0.6508444  3
    213    211    210    214     1  0.0000000  0.6508444  3
    213    211    210    217     1  0.0000000  0.6508444  3
    213    211    210    239     1  0.0000000  0.6508444  3
    213    211    223    235     1  0.0000000  0.6508444  3
    213    211    223    224     1  0.0000000  0.6508444  3
    213    211    223    225     1  0.0000000  0.6508444  3
    214    210    217    218     1  0.0000000  0.6508444  3
    214    210    217    219     1  0.0000000  0.6508444  3
    214    226    232    233     1  0.0000000  0.6508444  3
    214    226    232    234     1  0.0000000  0.6508444  3
    215    214    210    217     1  0.0000000  0.6508444  3
    215    214    210    239     1  0.0000000  0.6508444  3
    215    214    226    232     1  0.0000000  0.6508444  3
    215    214    226    227     1  0.0000000  0.6508444  3
    215    214    226    228     1  0.0000000  0.6508444  3
    216    214    210    217     1  0.0000000  0.6508444  3
    216    214    210    239     1  0.0000000  0.6508444  3
    216    214    226    232     1  0.0000000  0.6508444  3
    216    214    226    227     1  0.0000000  0.6508444  3
    216    214    226    228     1  0.0000000  0.6508444  3
    217    220    229    230     1  0.0000000  0.6508444  3
    217    220    229    231     1  0.0000000  0.6508444  3
    218    217    210    239     1  0.0000000  0.6508444  3
    218    217    220    229     1  0.0000000  0.6508444  3
    218    217    220    221     1  0.0000000  0.6508444  3
    218    217    220    222     1  0.0000000  0.6508444  3
    219    217    210    239     1  0.0000000  0.6508444  3
    219    217    220    229     1  0.0000000  0.6508444  3
    219    217    220    221     1  0.0000000  0.6508444  3
    219    217    220    222     1  0.0000000  0.6508444  3
    220    217    210    239     1  0.0000000  0.6508444  3
    221    220    229    238     1  0.0000000  1.0460000  1
    221    220    229    238     1  0.0000000  0.0000000  3
    221    220    229    230     1  0.0000000  0.6508444  3
    221    220    229    231     1  0.0000000  0.6508444  3
    222    220    229    238     1  0.0000000  1.0460000  1
    222    220    229    238     1  0.0000000  0.0000000  3
    222    220    229    230     1  0.0000000  0.6508444  3
    222    220    229    231     1  0.0000000  0.6508444  3
    223    211    210    239     1  0.0000000  0.6508444  3
    224    223    235    538     1  0.0000000  1.0460000  1
    224    223    235    538     1  0.0000000  0.0000000  3
    224    223    235    236     1  0.0000000  0.6508444  3
    224    223    235    237     1  0.0000000  0.6508444  3
    225    223    235    538     1  0.0000000  1.0460000  1
    225    223    235    538     1  0.0000000  0.0000000  3
    225    223    235    236     1  0.0000000  0.6508444  3
    225    223    235    237     1  0.0000000  0.6508444  3
    226    214    210    239     1  0.0000000  0.6508444  3
    227    226    232    508     1  0.0000000  1.0460000  1
    227    226    232    508     1  0.0000000  0.0000000  3
    227    226    232    233     1  0.0000000  0.6508444  3
    227    226    232    234     1  0.0000000  0.6508444  3
    228    226    232    508     1  0.0000000  1.0460000  1
    228    226    232    508     1  0.0000000  0.0000000  3
    228    226    232    233     1  0.0000000  0.6508444  3
    228    226    232    234     1  0.0000000  0.6508444  3
    232    508    499    500     1  0.0000000  1.6038667  3
    232    508    499    501     1  0.0000000  1.6038667  3
    233    232    508    499     1  0.0000000  1.6038667  3
    234    232    508    499     1  0.0000000  1.6038667  3
    235    538    529    530     1  0.0000000  1.6038667  3
    235    538    529    531     1  0.0000000  1.6038667  3
    236    235    538    529     1  0.0000000  1.6038667  3
    237    235    538    529     1  0.0000000  1.6038667  3
    240    241    253    254     1  0.0000000  0.6508444  3
    240    241    253    255     1  0.0000000  0.6508444  3
    240    244    256    257     1  0.0000000  0.6508444  3
    240    244    256    258     1  0.0000000  0.6508444  3
    240    247    250    251     1  0.0000000  0.6508444  3
    240    247    250    252     1  0.0000000  0.6508444  3
    241    240    244    245     1  0.0000000  0.6508444  3
    241    240    244    246     1  0.0000000  0.6508444  3
    241    240    247    248     1  0.0000000  0.6508444  3
    241    240    247    249     1  0.0000000  0.6508444  3
    241    253    265    266     1  0.0000000  0.6508444  3
    241    253    265    267     1  0.0000000  0.6508444  3
    242    241    240    244     1  0.0000000  0.6508444  3
    242    241    240    247     1  0.0000000  0.6508444  3
    242    241    240    269     1  0.0000000  0.6508444  3
    242    241    253    265     1  0.0000000  0.6508444  3
    242    241    253    254     1  0.0000000  0.6508444  3
    242    241    253    255     1  0.0000000  0.6508444  3
    243    241    240    244     1  0.0000000  0.6508444  3
    243    241    240    247     1  0.0000000  0.6508444  3
    243    241    240    269     1  0.0000000  0.6508444  3
    243    241    253    265     1  0.0000000  0.6508444  3
    243    241    253    254     1  0.0000000  0.6508444  3
    243    241    253    255     1  0.0000000  0.6508444  3
    244    240    247    248     1  0.0000000  0.6508444  3
    244    240    247    249     1  0.0000000  0.6508444  3
    244    256    262    263     1  0.0000000  0.6508444  3
    244    256    262    264     1  0.0000000  0.6508444  3
    245    244    240    247     1  0.0000000  0.6508444  3
    245    244    240    269     1  0.0000000  0.6508444  3
    245    244    256    262     1  0.0000000  0.6508444  3
    245    244    256    257     1  0.0000000  0.6508444  3
    245    244    256    258     1  0.0000000  0.6508444  3
    246    244    240    247     1  0.0000000  0.6508444  3
    246    244    240    269     1  0.0000000  0.6508444  3
    246    244    256    262     1  0.0000000  0.6508444  3
    246    244    256    257     1  0.0000000  0.6508444  3
    246    244    256    258     1  0.0000000  0.6508444  3
    247    250    259    260     1  0.0000000  0.6508444  3
    247    250    259    261     1  0.0000000  0.6508444  3
    248    247    240    269     1  0.0000000  0.6508444  3
    248    247    250    259     1  0.0000000  0.6508444  3
    248    247    250    251     1  0.0000000  0.6508444  3
    248    247    250    252     1  0.0000000  0.6508444  3
    249    247    240    269     1  0.0000000  0.6508444  3
    249    247    250    259     1  0.0000000  0.6508444  3
    249    247    250    251     1  0.0000000  0.6508444  3
    249    247    250    252     1  0.0000000  0.6508444  3
    250    247    240    269     1  0.0000000  0.6508444  3
    251    250    259    268     1  0.0000000  1.0460000  1
    251    250    259    268     1  0.0000000  0.0000000  3
    251    250    259    260     1  0.0000000  0.6508444  3
    251    250    259    261     1  0.0000000  0.6508444  3
    252    250    259    268     1  0.0000000  1.0460000  1
    252    250    259    268     1  0.0000000  0.0000000  3
    252    250    259    260     1  0.0000000  0.6508444  3
    252    250    259    261     1  0.0000000  0.6508444  3
    253    241    240    269     1  0.0000000  0.6508444  3
    254    253    265    598     1  0.0000000  1.0460000  1
    254    253    265    598     1  0.0000000  0.0000000  3
    254    253    265    266     1  0.0000000  0.6508444  3
    254    253    265    267     1  0.0000000  0.6508444  3
    255    253    265    598     1  0.0000000  1.0460000  1
    255    253    265    598     1  0.0000000  0.0000000  3
    255    253    265    266     1  0.0000000  0.6508444  3
    255    253    265    267     1  0.0000000  0.6508444  3
    256    244    240    269     1  0.0000000  0.6508444  3
    257    256    262    568     1  0.0000000  1.0460000  1
    257    256    262    568     1  0.0000000  0.0000000  3
    257    256    262    263     1  0.0000000  0.6508444  3
    257    256    262    264     1  0.0000000  0.6508444  3
    258    256    262    568     1  0.0000000  1.0460000  1
    258    256    262    568     1  0.0000000  0.0000000  3
    258    256    262    263     1  0.0000000  0.6508444  3
    258    256    262    264     1  0.0000000  0.6508444  3
    262    568    559    560     1  0.0000000  1.6038667  3
    262    568    559    561     1  0.0000000  1.6038667  3
    263    262    568    559     1  0.0000000  1.6038667  3
    264    262    568    559     1  0.0000000  1.6038667  3
    265    598    589    590     1  0.0000000  1.6038667  3
    265    598    589    591     1  0.0000000  1.6038667  3
    266    265    598    589     1  0.0000000  1.6038667  3
    267    265    598    589     1  0.0000000  1.6038667  3
    270    271    283    284     1  0.0000000  0.6508444  3
    270    271    283    285     1  0.0000000  0.6508444  3
    270    274    286    287     1  0.0000000  0.6508444  3
    270    274    286    288     1  0.0000000  0.6508444  3
    270    277    280    281     1  0.0000000  0.6508444  3
    270    277    280    282     1  0.0000000  0.6508444  3
    271    270    274    275     1  0.0000000  0.6508444  3
    271    270    274    276     1  0.0000000  0.6508444  3
    271    270    277    278     1  0.0000000  0.6508444  3
    271    270    277    279     1  0.0000000  0.6508444  3
    271    283    295    296     1  0.0000000  0.6508444  3
    271    283    295    297     1  0.0000000  0.6508444  3
    272    271    270    274     1  0.0000000  0.6508444  3
    272    271    270    277     1  0.0000000  0.6508444  3
    272    271    270    299     1  0.0000000  0.6508444  3
    272    271    283    295     1  0.0000000  0.6508444  3
    272    271    283    284     1  0.0000000  0.6508444  3
    272    271    283    285     1  0.0000000  0.6508444  3
    273    271    270    274     1  0.0000000  0.6508444  3
    273    271    270    277     1  0.0000000  0.6508444  3
    273    271    270    299     1  0.0000000  0.6508444  3
    273    271    283    295     1  0.0000000  0.6508444  3
    273    271    283    284     1  0.0000000  0.6508444  3
    273    271    283    285     1  0.0000000  0.6508444  3
    274    270    277    278     1  0.0000000  0.6508444  3
    274    270    277    279     1  0.0000000  0.6508444  3
    274    286    292    293     1  0.0000000  0.6508444  3
    274    286    292    294     1  0.0000000  0.6508444  3
    275    274    270    277     1  0.0000000  0.6508444  3
    275    274    270    299     1  0.0000000  0.6508444  3
    275    274    286    292     1  0.0000000  0.6508444  3
    275    274    286    287     1  0.0000000  0.6508444  3
    275    274    286    288     1  0.0000000  0.6508444  3
    276    274    270    277     1  0.0000000  0.6508444  3
    276    274    270    299     1  0.0000000  0.6508444  3
    276    274    286    292     1  0.0000000  0.6508444  3
    276    274    286    287     1  0.0000000  0.6508444  3
    276    274    286    288     1  0.0000000  0.6508444  3
    277    280    289    290     1  0.0000000  0.6508444  3
    277    280    289    291     1  0.0000000  0.6508444  3
    278    277    270    299     1  0.0000000  0.6508444  3
    278    277    280    289     1  0.0000000  0.6508444  3
    278    277    280    281     1  0.0000000  0.6508444  3
    278    277    280    282     1  0.0000000  0.6508444  3
    279    277    270    299     1  0.0000000  0.6508444  3
    279    277    280    289     1  0.0000000  0.6508444  3
    279    277    280    281     1  0.0000000  0.6508444  3
    279    277    280    282     1  0.0000000  0.6508444  3
    280    277    270    299     1  0.0000000  0.6508444  3
    281    280    289    298     1  0.0000000  1.0460000  1
    281    280    289    298     1  0.0000000  0.0000000  3
    281    280    289    290     1  0.0000000  0.6508444  3
    281    280    289    291     1  0.0000000  0.6508444  3
    282    280    289    298     1  0.0000000  1.0460000  1
    282    280    289    298     1  0.0000000  0.0000000  3
    282    280    289    290     1  0.0000000  0.6508444  3
    282    280    289    291     1  0.0000000  0.6508444  3
    283    271    270    299     1  0.0000000  0.6508444  3
    284    283    295    658     1  0.0000000  1.0460000  1
    284    283    295    658     1  0.0000000  0.0000000  3
    284    283    295    296     1  0.0000000  0.6508444  3
    284    283    295    297     1  0.0000000  0.6508444  3
    285    283    295    658     1  0.0000000  1.0460000  1
    285    283    295    658     1  0.0000000  0.0000000  3
    285    283    295    296     1  0.0000000  0.6508444  3
    285    283    295    297     1  0.0000000  0.6508444  3
    286    274    270    299     1  0.0000000  0.6508444  3
    287    286    292    628     1  0.0000000  1.0460000  1
    287    286    292    628     1  0.0000000  0.0000000  3
    287    286    292    293     1  0.0000000  0.6508444  3
    287    286    292    294     1  0.0000000  0.6508444  3
    288    286    292    628     1  0.0000000  1.0460000  1
    288    286    292    628     1  0.0000000  0.0000000  3
    288    286    292    293     1  0.0000000  0.6508444  3
    288    286    292    294     1  0.0000000  0.6508444  3
    292    628    619    620     1  0.0000000  1.6038667  3
    292    628    619    621     1  0.0000000  1.6038667  3
    293    292    628    619     1  0.0000000  1.6038667  3
    294    292    628    619     1  0.0000000  1.6038667  3
    295    658    649    650     1  0.0000000  1.6038667  3
    295    658    649    651     1  0.0000000  1.6038667  3
    296    295    658    649     1  0.0000000  1.6038667  3
    297    295    658    649     1  0.0000000  1.6038667  3
    300    301    313    314     1  0.0000000  0.6508444  3
    300    301    313    315     1  0.0000000  0.6508444  3
    300    304    316    317     1  0.0000000  0.6508444  3
    300    304    316    318     1  0.0000000  0.6508444  3
    300    307    310    311     1  0.0000000  0.6508444  3
    300    307    310    312     1  0.0000000  0.6508444  3
    301    300    304    305     1  0.0000000  0.6508444  3
    301    300    304    306     1  0.0000000  0.6508444  3
    301    300    307    308     1  0.0000000  0.6508444  3
    301    300    307    309     1  0.0000000  0.6508444  3
    301    313    325    326     1  0.0000000  0.6508444  3
    301    313    325    327     1  0.0000000  0.6508444  3
    302    301    300    304     1  0.0000000  0.6508444  3
    302    301    300    307     1  0.0000000  0.6508444  3
    302    301    300    329     1  0.0000000  0.6508444  3
    302    301    313    325     1  0.0000000  0.6508444  3
    302    301    313    314     1  0.0000000  0.6508444  3
    302    301    313    315     1  0.0000000  0.6508444  3
    303    301    300    304     1  0.0000000  0.6508444  3
    303    301    300    307     1  0.0000000  0.6508444  3
    303    301    300    329     1  0.0000000  0.6508444  3
    303    301    313    325     1  0.0000000  0.6508444  3
    303    301    313    314     1  0.0000000  0.6508444  3
    303    301    313    315     1  0.0000000  0.6508444  3
    304    300    307    308     1  0.0000000  0.6508444  3
    304    300    307    309     1  0.0000000  0.6508444  3
    304    316    322    323     1  0.0000000  0.6508444  3
    304    316    322    324     1  0.0000000  0.6508444  3
    305    304    300    307     1  0.0000000  0.6508444  3
    305    304    300    329     1  0.0000000  0.6508444  3
    305    304    316    322     1  0.0000000  0.6508444  3
    305    304    316    317     1  0.0000000  0.6508444  3
    305    304    316    318     1  0.0000000  0.6508444  3
    306    304    300    307     1  0.0000000  0.6508444  3
    306    304    300    329     1  0.0000000  0.6508444  3
    306    304    316    322     1  0.0000000  0.6508444  3
    306    304    316    317     1  0.0000000  0.6508444  3
    306    304    316    318     1  0.0000000  0.6508444  3
    307    310    319    320     1  0.0000000  0.6508444  3
    307    310    319    321     1  0.0000000  0.6508444  3
    308    307    300    329     1  0.0000000  0.6508444  3
    308    307    310    319     1  0.0000000  0.6508444  3
    308    307    310    311     1  0.0000000  0.6508444  3
    308    307    310    312     1  0.0000000  0.6508444  3
    309    307    300    329     1  0.0000000  0.6508444  3
    309    307    310    319     1  0.0000000  0.6508444  3
    309    307    310    311     1  0.0000000  0.6508444  3
    309    307    310    312     1  0.0000000  0.6508444  3
    310    307    300    329     1  0.0000000  0.6508444  3
    311    310    319    328     1  0.0000000  1.0460000  1
    311    310    319    328     1  0.0000000  0.0000000  3
    311    310    319    320     1  0.0000000  0.6508444  3
    311    310    319    321     1  0.0000000  0.6508444  3
    312    310    319    328     1  0.0000000  1.0460000  1
    312    310    319    328     1  0.0000000  0.0000000  3
    312    310    319    320     1  0.0000000  0.6508444  3
    312    310    319    321     1  0.0000000  0.6508444  3
    313    301    300    329     1  0.0000000  0.6508444  3
    314    313    325    718     1  0.0000000  1.0460000  1
    314    313    325    718     1  0.0000000  0.0000000  3
    314    313    325    326     1  0.0000000  0.6508444  3
    314    313    325    327     1  0.0000000  0.6508444  3
    315    313    325    718     1  0.0000000  1.0460000  1
    315    313    325    718     1  0.0000000  0.0000000  3
    315    313    325    326     1  0.0000000  0.6508444  3
    315    313    325    327     1  0.0000000  0.6508444  3
    316    304    300    329     1  0.0000000  0.6508444  3
    317    316    322    688     1  0.0000000  1.0460000  1
    317    316    322    688     1  0.0000000  0.0000000  3
    317    316    322    323     1  0.0000000  0.6508444  3
    317    316    322    324     1  0.0000000  0.6508444  3
    318    316    322    688     1  0.0000000  1.0460000  1
    318    316    322    688     1  0.0000000  0.0000000  3
    318    316    322    323     1  0.0000000  0.6508444  3
    318    316    322    324     1  0.0000000  0.6508444  3
    322    688    679    680     1  0.0000000  1.6038667  3
    322    688    679    681     1  0.0000000  1.6038667  3
    323    322    688    679     1  0.0000000  1.6038667  3
    324    322    688    679     1  0.0000000  1.6038667  3
    325    718    709    710     1  0.0000000  1.6038667  3
    325    718    709    711     1  0.0000000  1.6038667  3
    326    325    718    709     1  0.0000000  1.6038667  3
    327    325    718    709     1  0.0000000  1.6038667  3
    330    331    343    344     1  0.0000000  0.6508444  3
    330    331    343    345     1  0.0000000  0.6508444  3
    330    334    346    347     1  0.0000000  0.6508444  3
    330    334    346    348     1  0.0000000  0.6508444  3
    330    337    340    341     1  0.0000000  0.6508444  3
    330    337    340    342     1  0.0000000  0.6508444  3
    331    330    334    335     1  0.0000000  0.6508444  3
    331    330    334    336     1  0.0000000  0.6508444  3
    331    330    337    338     1  0.0000000  0.6508444  3
    331    330    337    339     1  0.0000000  0.6508444  3
    331    343    355    356     1  0.0000000  0.6508444  3
    331    343    355    357     1  0.0000000  0.6508444  3
    332    331    330    334     1  0.0000000  0.6508444  3
    332    331    330    337     1  0.0000000  0.6508444  3
    332    331    330    359     1  0.0000000  0.6508444  3
    332    331    343    355     1  0.0000000  0.6508444  3
    332    331    343    344     1  0.0000000  0.6508444  3
    332    331    343    345     1  0.0000000  0.6508444  3
    333    331    330    334     1  0.0000000  0.6508444  3
    333    331    330    337     1  0.0000000  0.6508444  3
    333    331    330    359     1  0.0000000  0.6508444  3
    333    331    343    355     1  0.0000000  0.6508444  3
    333    331    343    344     1  0.0000000  0.6508444  3
    333    331    343    345     1  0.0000000  0.6508444  3
    334    330    337    338     1  0.0000000  0.6508444  3
    334    330    337    339     1  0.0000000  0.6508444  3
    334    346    352    353     1  0.0000000  0.6508444  3
    334    346    352    354     1  0.0000000  0.6508444  3
    335    334    330    337     1  0.0000000  0.6508444  3
    335    334    330    359     1  0.0000000  0.6508444  3
    335    334    346    352     1  0.0000000  0.6508444  3
    335    334    346    347     1  0.0000000  0.6508444  3
    335    334    346    348     1  0.0000000  0.6508444  3
    336    334    330    337     1  0.0000000  0.6508444  3
    336    334    330    359     1  0.0000000  0.6508444  3
    336    334    346    352     1  0.0000000  0.6508444  3
    336    334    346    347     1  0.0000000  0.6508444  3
    336    334    346    348     1  0.0000000  0.6508444  3
    337    340    349    350     1  0.0000000  0.6508444  3
    337    340    349    351     1  0.0000000  0.6508444  3
    338    337    330    359     1  0.0000000  0.6508444  3
    338    337    340    349     1  0.0000000  0.6508444  3
    338    337    340    341     1  0.0000000  0.6508444  3
    338    337    340    342     1  0.0000000  0.6508444  3
    339    337    330    359     1  0.0000000  0.6508444  3
    339    337    340    349     1  0.0000000  0.6508444  3
    339    337    340    341     1  0.0000000  0.6508444  3
    339    337    340    342     1  0.0000000  0.6508444  3
    340    337    330    359     1  0.0000000  0.6508444  3
    341    340    349    358     1  0.0000000  1.0460000  1
    341    340    349    358     1  0.0000000  0.0000000  3
    341    340    349    350     1  0.0000000  0.6508444  3
    341    340    349    351     1  0.0000000  0.6508444  3
    342    340    349    358     1  0.0000000  1.0460000  1
    342    340    349    358     1  0.0000000  0.0000000  3
    342    340    349    350     1  0.0000000  0.6508444  3
    342    340    349    351     1  0.0000000  0.6508444  3
    343    331    330    359     1  0.0000000  0.6508444  3
    344    343    355    778     1  0.0000000  1.0460000  1
    344    343    355    778     1  0.0000000  0.0000000  3
    344    343    355    356     1  0.0000000  0.6508444  3
    344    343    355    357     1  0.0000000  0.6508444  3
    345    343    355    778     1  0.0000000  1.0460000  1
    345    343    355    778     1  0.0000000  0.0000000  3
    345    343    355    356     1  0.0000000  0.6508444  3
    345    343    355    357     1  0.0000000  0.6508444  3
    346    334    330    359     1  0.0000000  0.6508444  3
    347    346    352    748     1  0.0000000  1.0460000  1
    347    346    352    748     1  0.0000000  0.0000000  3
    347    346    352    353     1  0.0000000  0.6508444  3
    347    346    352    354     1  0.0000000  0.6508444  3
    348    346    352    748     1  0.0000000  1.0460000  1
    348    346    352    748     1  0.0000000  0.0000000  3
    348    346    352    353     1  0.0000000  0.6508444  3
    348    346    352    354     1  0.0000000  0.6508444  3
    352    748    739    740     1  0.0000000  1.6038667  3
    352    748    739    741     1  0.0000000  1.6038667  3
    353    352    748    739     1  0.0000000  1.6038667  3
    354    352    748    739     1  0.0000000  1.6038667  3
    355    778    769    770     1  0.0000000  1.6038667  3
    355    778    769    771     1  0.0000000  1.6038667  3
    356    355    778    769     1  0.0000000  1.6038667  3
    357    355    778    769     1  0.0000000  1.6038667  3
    360    361    373    374     1  0.0000000  0.6508444  3
    360    361    373    375     1  0.0000000  0.6508444  3
    360    364    376    377     1  0.0000000  0.6508444  3
    360    364    376    378     1  0.0000000  0.6508444  3
    360    367    370    371     1  0.0000000  0.6508444  3
    360    367    370    372     1  0.0000000  0.6508444  3
    361    360    364    365     1  0.0000000  0.6508444  3
    361    360    364    366     1  0.0000000  0.6508444  3
    361    360    367    368     1  0.0000000  0.6508444  3
    361    360    367    369     1  0.0000000  0.6508444  3
    361    373    385    386     1  0.0000000  0.6508444  3
    361    373    385    387     1  0.0000000  0.6508444  3
    362    361    360    364     1  0.0000000  0.6508444  3
    362    361    360    367     1  0.0000000  0.6508444  3
    362    361    360    389     1  0.0000000  0.6508444  3
    362    361    373    385     1  0.0000000  0.6508444  3
    362    361    373    374     1  0.0000000  0.6508444  3
    362    361    373    375     1  0.0000000  0.6508444  3
    363    361    360    364     1  0.0000000  0.6508444  3
    363    361    360    367     1  0.0000000  0.6508444  3
    363    361    360    389     1  0.0000000  0.6508444  3
    363    361    373    385     1  0.0000000  0.6508444  3
    363    361    373    374     1  0.0000000  0.6508444  3
    363    361    373    375     1  0.0000000  0.6508444  3
    364    360    367    368     1  0.0000000  0.6508444  3
    364    360    367    369     1  0.0000000  0.6508444  3
    364    376    382    383     1  0.0000000  0.6508444  3
    364    376    382    384     1  0.0000000  0.6508444  3
    365    364    360    367     1  0.0000000  0.6508444  3
    365    364    360    389     1  0.0000000  0.6508444  3
    365    364    376    382     1  0.0000000  0.6508444  3
    365    364    376    377     1  0.0000000  0.6508444  3
    365    364    376    378     1  0.0000000  0.6508444  3
    366    364    360    367     1  0.0000000  0.6508444  3
    366    364    360    389     1  0.0000000  0.6508444  3
    366    364    376    382     1  0.0000000  0.6508444  3
    366    364    376    377     1  0.0000000  0.6508444  3
    366    364    376    378     1  0.0000000  0.6508444  3
    367    370    379    380     1  0.0000000  0.6508444  3
    367    370    379    381     1  0.0000000  0.6508444  3
    368    367    360    389     1  0.0000000  0.6508444  3
    368    367    370    379     1  0.0000000  0.6508444  3
    368    367    370    371     1  0.0000000  0.6508444  3
    368    367    370    372     1  0.0000000  0.6508444  3
    369    367    360    389     1  0.0000000  0.6508444  3
    369    367    370    379     1  0.0000000  0.6508444  3
    369    367    370    371     1  0.0000000  0.6508444  3
    369    367    370    372     1  0.0000000  0.6508444  3
    370    367    360    389     1  0.0000000  0.6508444  3
    371    370    379    388     1  0.0000000  1.0460000  1
    371    370    379    388     1  0.0000000  0.0000000  3
    371    370    379    380     1  0.0000000  0.6508444  3
    371    370    379    381     1  0.0000000  0.6508444  3
    372    370    379    388     1  0.0000000  1.0460000  1
    372    370    379    388     1  0.0000000  0.0000000  3
    372    370    379    380     1  0.0000000  0.6508444  3
    372    370    379    381     1  0.0000000  0.6508444  3
    373    361    360    389     1  0.0000000  0.6508444  3
    374    373    385    838     1  0.0000000  1.0460000  1
    374    373    385    838     1  0.0000000  0.0000000  3
    374    373    385    386     1  0.0000000  0.6508444  3
    374    373    385    387     1  0.0000000  0.6508444  3
    375    373    385    838     1  0.0000000  1.0460000  1
    375    373    385    838     1  0.0000000  0.0000000  3
    375    373    385    386     1  0.0000000  0.6508444  3
    375    373    385    387     1  0.0000000  0.6508444  3
    376    364    360    389     1  0.0000000  0.6508444  3
    377    376    382    808     1  0.0000000  1.0460000  1
    377    376    382    808     1  0.0000000  0.0000000  3
    377    376    382    383     1  0.0000000  0.6508444  3
    377    376    382    384     1  0.0000000  0.6508444  3
    378    376    382    808     1  0.0000000  1.0460000  1
    378    376    382    808     1  0.0000000  0.0000000  3
    378    376    382    383     1  0.0000000  0.6508444  3
    378    376    382    384     1  0.0000000  0.6508444  3
    382    808    799    800     1  0.0000000  1.6038667  3
    382    808    799    801     1  0.0000000  1.6038667  3
    383    382    808    799     1  0.0000000  1.6038667  3
    384    382    808    799     1  0.0000000  1.6038667  3
    385    838    829    830     1  0.0000000  1.6038667  3
    385    838    829    831     1  0.0000000  1.6038667  3
    386    385    838    829     1  0.0000000  1.6038667  3
    387    385    838    829     1  0.0000000  1.6038667  3
    390    391    403    404     1  0.0000000  0.6508444  3
    390    391    403    405     1  0.0000000  0.6508444  3
    390    394    406    407     1  0.0000000  0.6508444  3
    390    394    406    408     1  0.0000000  0.6508444  3
    390    397    400    401     1  0.0000000  0.6508444  3
    390    397    400    402     1  0.0000000  0.6508444  3
    391    390    394    395     1  0.0000000  0.6508444  3
    391    390    394    396     1  0.0000000  0.6508444  3
    391    390    397    398     1  0.0000000  0.6508444  3
    391    390    397    399     1  0.0000000  0.6508444  3
    391    403    415    416     1  0.0000000  0.6508444  3
    391    403    415    417     1  0.0000000  0.6508444  3
    392    391    390    394     1  0.0000000  0.6508444  3
    392    391    390    397     1  0.0000000  0.6508444  3
    392    391    390    419     1  0.0000000  0.6508444  3
    392    391    403    415     1  0.0000000  0.6508444  3
    392    391    403    404     1  0.0000000  0.6508444  3
    392    391    403    405     1  0.0000000  0.6508444  3
    393    391    390    394     1  0.0000000  0.6508444  3
    393    391    390    397     1  0.0000000  0.6508444  3
    393    391    390    419     1  0.0000000  0.6508444  3
    393    391    403    415     1  0.0000000  0.6508444  3
    393    391    403    404     1  0.0000000  0.6508444  3
    393    391    403    405     1  0.0000000  0.6508444  3
    394    390    397    398     1  0.0000000  0.6508444  3
    394    390    397    399     1  0.0000000  0.6508444  3
    394    406    412    413     1  0.0000000  0.6508444  3
    394    406    412    414     1  0.0000000  0.6508444  3
    395    394    390    397     1  0.0000000  0.6508444  3
    395    394    390    419     1  0.0000000  0.6508444  3
    395    394    406    412     1  0.0000000  0.6508444  3
    395    394    406    407     1  0.0000000  0.6508444  3
    395    394    406    408     1  0.0000000  0.6508444  3
    396    394    390    397     1  0.0000000  0.6508444  3
    396    394    390    419     1  0.0000000  0.6508444  3
    396    394    406    412     1  0.0000000  0.6508444  3
    396    394    406    407     1  0.0000000  0.6508444  3
    396    394    406    408     1  0.0000000  0.6508444  3
    397    400    409    410     1  0.0000000  0.6508444  3
    397    400    409    411     1  0.0000000  0.6508444  3
    398    397    390    419     1  0.0000000  0.6508444  3
    398    397    400    409     1  0.0000000  0.6508444  3
    398    397    400    401     1  0.0000000  0.6508444  3
    398    397    400    402     1  0.0000000  0.6508444  3
    399    397    390    419     1  0.0000000  0.6508444  3
    399    397    400    409     1  0.0000000  0.6508444  3
    399    397    400    401     1  0.0000000  0.6508444  3
    399    397    400    402     1  0.0000000  0.6508444  3
    400    397    390    419     1  0.0000000  0.6508444  3
    401    400    409    418     1  0.0000000  1.0460000  1
    401    400    409    418     1  0.0000000  0.0000000  3
    401    400    409    410     1  0.0000000  0.6508444  3
    401    400    409    411     1  0.0000000  0.6508444  3
    402    400    409    418     1  0.0000000  1.0460000  1
    402    400    409    418     1  0.0000000  0.0000000  3
    402    400    409    410     1  0.0000000  0.6508444  3
    402    400    409    411     1  0.0000000  0.6508444  3
    403    391    390    419     1  0.0000000  0.6508444  3
    404    403    415    898     1  0.0000000  1.0460000  1
    404    403    415    898     1  0.0000000  0.0000000  3
    404    403    415    416     1  0.0000000  0.6508444  3
    404    403    415    417     1  0.0000000  0.6508444  3
    405    403    415    898     1  0.0000000  1.0460000  1
    405    403    415    898     1  0.0000000  0.0000000  3
    405    403    415    416     1  0.0000000  0.6508444  3
    405    403    415    417     1  0.0000000  0.6508444  3
    406    394    390    419     1  0.0000000  0.6508444  3
    407    406    412    868     1  0.0000000  1.0460000  1
    407    406    412    868     1  0.0000000  0.0000000  3
    407    406    412    413     1  0.0000000  0.6508444  3
    407    406    412    414     1  0.0000000  0.6508444  3
    408    406    412    868     1  0.0000000  1.0460000  1
    408    406    412    868     1  0.0000000  0.0000000  3
    408    406    412    413     1  0.0000000  0.6508444  3
    408    406    412    414     1  0.0000000  0.6508444  3
    412    868    859    860     1  0.0000000  1.6038667  3
    412    868    859    861     1  0.0000000  1.6038667  3
    413    412    868    859     1  0.0000000  1.6038667  3
    414    412    868    859     1  0.0000000  1.6038667  3
    415    898    889    890     1  0.0000000  1.6038667  3
    415    898    889    891     1  0.0000000  1.6038667  3
    416    415    898    889     1  0.0000000  1.6038667  3
    417    415    898    889     1  0.0000000  1.6038667  3
    420    421    433    434     1  0.0000000  0.6508444  3
    420    421    433    435     1  0.0000000  0.6508444  3
    420    424    436    437     1  0.0000000  0.6508444  3
    420    424    436    438     1  0.0000000  0.6508444  3
    420    427    430    431     1  0.0000000  0.6508444  3
    420    427    430    432     1  0.0000000  0.6508444  3
    421    420    424    425     1  0.0000000  0.6508444  3
    421    420    424    426     1  0.0000000  0.6508444  3
    421    420    427    428     1  0.0000000  0.6508444  3
    421    420    427    429     1  0.0000000  0.6508444  3
    421    433    445    446     1  0.0000000  0.6508444  3
    421    433    445    447     1  0.0000000  0.6508444  3
    422    421    420    424     1  0.0000000  0.6508444  3
    422    421    420    427     1  0.0000000  0.6508444  3
    422    421    420    449     1  0.0000000  0.6508444  3
    422    421    433    445     1  0.0000000  0.6508444  3
    422    421    433    434     1  0.0000000  0.6508444  3
    422    421    433    435     1  0.0000000  0.6508444  3
    423    421    420    424     1  0.0000000  0.6508444  3
    423    421    420    427     1  0.0000000  0.6508444  3
    423    421    420    449     1  0.0000000  0.6508444  3
    423    421    433    445     1  0.0000000  0.6508444  3
    423    421    433    434     1  0.0000000  0.6508444  3
    423    421    433    435     1  0.0000000  0.6508444  3
    424    420    427    428     1  0.0000000  0.6508444  3
    424    420    427    429     1  0.0000000  0.6508444  3
    424    436    442    443     1  0.0000000  0.6508444  3
    424    436    442    444     1  0.0000000  0.6508444  3
    425    424    420    427     1  0.0000000  0.6508444  3
    425    424    420    449     1  0.0000000  0.6508444  3
    425    424    436    442     1  0.0000000  0.6508444  3
    425    424    436    437     1  0.0000000  0.6508444  3
    425    424    436    438     1  0.0000000  0.6508444  3
    426    424    420    427     1  0.0000000  0.6508444  3
    426    424    420    449     1  0.0000000  0.6508444  3
    426    424    436    442     1  0.0000000  0.6508444  3
    426    424    436    437     1  0.0000000  0.6508444  3
    426    424    436    438     1  0.0000000  0.6508444  3
    427    430    439    440     1  0.0000000  0.6508444  3
    427    430    439    441     1  0.0000000  0.6508444  3
    428    427    420    449     1  0.0000000  0.6508444  3
    428    427    430    439     1  0.0000000  0.6508444  3
    428    427    430    431     1  0.0000000  0.6508444  3
    428    427    430    432     1  0.0000000  0.6508444  3
    429    427    420    449     1  0.0000000  0.6508444  3
    429    427    430    439     1  0.0000000  0.6508444  3
    429    427    430    431     1  0.0000000  0.6508444  3
    429    427    430    432     1  0.0000000  0.6508444  3
    430    427    420    449     1  0.0000000  0.6508444  3
    431    430    439    448     1  0.0000000  1.0460000  1
    431    430    439    448     1  0.0000000  0.0000000  3
    431    430    439    440     1  0.0000000  0.6508444  3
    431    430    439    441     1  0.0000000  0.6508444  3
    432    430    439    448     1  0.0000000  1.0460000  1
    432    430    439    448     1  0.0000000  0.0000000  3
    432    430    439    440     1  0.0000000  0.6508444  3
    432    430    439    441     1  0.0000000  0.6508444  3
    433    421    420    449     1  0.0000000  0.6508444  3
    434    433    445    958     1  0.0000000  1.0460000  1
    434    433    445    958     1  0.0000000  0.0000000  3
    434    433    445    446     1  0.0000000  0.6508444  3
    434    433    445    447     1  0.0000000  0.6508444  3
    435    433    445    958     1  0.0000000  1.0460000  1
    435    433    445    958     1  0.0000000  0.0000000  3
    435    433    445    446     1  0.0000000  0.6508444  3
    435    433    445    447     1  0.0000000  0.6508444  3
    436    424    420    449     1  0.0000000  0.6508444  3
    437    436    442    928     1  0.0000000  1.0460000  1
    437    436    442    928     1  0.0000000  0.0000000  3
    437    436    442    443     1  0.0000000  0.6508444  3
    437    436    442    444     1  0.0000000  0.6508444  3
    438    436    442    928     1  0.0000000  1.0460000  1
    438    436    442    928     1  0.0000000  0.0000000  3
    438    436    442    443     1  0.0000000  0.6508444  3
    438    436    442    444     1  0.0000000  0.6508444  3
    442    928    919    920     1  0.0000000  1.6038667  3
    442    928    919    921     1  0.0000000  1.6038667  3
    443    442    928    919     1  0.0000000  1.6038667  3
    444    442    928    919     1  0.0000000  1.6038667  3
    445    958    949    950     1  0.0000000  1.6038667  3
    445    958    949    951     1  0.0000000  1.6038667  3
    446    445    958    949     1  0.0000000  1.6038667  3
    447    445    958    949     1  0.0000000  1.6038667  3
    450    451    463    464     1  0.0000000  0.6508444  3
    450    451    463    465     1  0.0000000  0.6508444  3
    450    454    466    467     1  0.0000000  0.6508444  3
    450    454    466    468     1  0.0000000  0.6508444  3
    450    457    460    461     1  0.0000000  0.6508444  3
    450    457    460    462     1  0.0000000  0.6508444  3
    451    450    454    455     1  0.0000000  0.6508444  3
    451    450    454    456     1  0.0000000  0.6508444  3
    451    450    457    458     1  0.0000000  0.6508444  3
    451    450    457    459     1  0.0000000  0.6508444  3
    451    463    475    476     1  0.0000000  0.6508444  3
    451    463    475    477     1  0.0000000  0.6508444  3
    452    451    450    454     1  0.0000000  0.6508444  3
    452    451    450    457     1  0.0000000  0.6508444  3
    452    451    450    479     1  0.0000000  0.6508444  3
    452    451    463    475     1  0.0000000  0.6508444  3
    452    451    463    464     1  0.0000000  0.6508444  3
    452    451    463    465     1  0.0000000  0.6508444  3
    453    451    450    454     1  0.0000000  0.6508444  3
    453    451    450    457     1  0.0000000  0.6508444  3
    453    451    450    479     1  0.0000000  0.6508444  3
    453    451    463    475     1  0.0000000  0.6508444  3
    453    451    463    464     1  0.0000000  0.6508444  3
    453    451    463    465     1  0.0000000  0.6508444  3
    454    450    457    458     1  0.0000000  0.6508444  3
    454    450    457    459     1  0.0000000  0.6508444  3
    454    466    472    473     1  0.0000000  0.6508444  3
    454    466    472    474     1  0.0000000  0.6508444  3
    455    454    450    457     1  0.0000000  0.6508444  3
    455    454    450    479     1  0.0000000  0.6508444  3
    455    454    466    472     1  0.0000000  0.6508444  3
    455    454    466    467     1  0.0000000  0.6508444  3
    455    454    466    468     1  0.0000000  0.6508444  3
    456    454    450    457     1  0.0000000  0.6508444  3
    456    454    450    479     1  0.0000000  0.6508444  3
    456    454    466    472     1  0.0000000  0.6508444  3
    456    454    466    467     1  0.0000000  0.6508444  3
    456    454    466    468     1  0.0000000  0.6508444  3
    457    460    469    470     1  0.0000000  0.6508444  3
    457    460    469    471     1  0.0000000  0.6508444  3
    458    457    450    479     1  0.0000000  0.6508444  3
    458    457    460    469     1  0.0000000  0.6508444  3
    458    457    460    461     1  0.0000000  0.6508444  3
    458    457    460    462     1  0.0000000  0.6508444  3
    459    457    450    479     1  0.0000000  0.6508444  3
    459    457    460    469     1  0.0000000  0.6508444  3
    459    457    460    461     1  0.0000000  0.6508444  3
    459    457    460    462     1  0.0000000  0.6508444  3
    460    457    450    479     1  0.0000000  0.6508444  3
    461    460    469    478     1  0.0000000  1.0460000  1
    461    460    469    478     1  0.0000000  0.0000000  3
    461    460    469    470     1  0.0000000  0.6508444  3
    461    460    469    471     1  0.0000000  0.6508444  3
    462    460    469    478     1  0.0000000  1.0460000  1
    462    460    469    478     1  0.0000000  0.0000000  3
    462    460    469    470     1  0.0000000  0.6508444  3
    462    460    469    471     1  0.0000000  0.6508444  3
    463    451    450    479     1  0.0000000  0.6508444  3
    464    463    475   1018     1  0.0000000  1.0460000  1
    464    463    475   1018     1  0.0000000  0.0000000  3
    464    463    475    476     1  0.0000000  0.6508444  3
    464    463    475    477     1  0.0000000  0.6508444  3
    465    463    475   1018     1  0.0000000  1.0460000  1
    465    463    475   1018     1  0.0000000  0.0000000  3
    465    463    475    476     1  0.0000000  0.6508444  3
    465    463    475    477     1  0.0000000  0.6508444  3
    466    454    450    479     1  0.0000000  0.6508444  3
    467    466    472    988     1  0.0000000  1.0460000  1
    467    466    472    988     1  0.0000000  0.0000000  3
    467    466    472    473     1  0.0000000  0.6508444  3
    467    466    472    474     1  0.0000000  0.6508444  3
    468    466    472    988     1  0.0000000  1.0460000  1
    468    466    472    988     1  0.0000000  0.0000000  3
    468    466    472    473     1  0.0000000  0.6508444  3
    468    466    472    474     1  0.0000000  0.6508444  3
    472    988    979    980     1  0.0000000  1.6038667  3
    472    988    979    981     1  0.0000000  1.6038667  3
    473    472    988    979     1  0.0000000  1.6038667  3
    474    472    988    979     1  0.0000000  1.6038667  3
    475   1018   1009   1010     1  0.0000000  1.6038667  3
    475   1018   1009   1011     1  0.0000000  1.6038667  3
    476    475   1018   1009     1  0.0000000  1.6038667  3
    477    475   1018   1009     1  0.0000000  1.6038667  3
    480    481    493    494     1  0.0000000  0.6508444  3
    480    481    493    495     1  0.0000000  0.6508444  3
    480    484    496    497     1  0.0000000  0.6508444  3
    480    484    496    498     1  0.0000000  0.6508444  3
    480    487    490    491     1  0.0000000  0.6508444  3
    480    487    490    492     1  0.0000000  0.6508444  3
    481    480    484    485     1  0.0000000  0.6508444  3
    481    480    484    486     1  0.0000000  0.6508444  3
    481    480    487    488     1  0.0000000  0.6508444  3
    481    480    487    489     1  0.0000000  0.6508444  3
    481    493    505    506     1  0.0000000  0.6508444  3
    481    493    505    507     1  0.0000000  0.6508444  3
    482    481    480    484     1  0.0000000  0.6508444  3
    482    481    480    487     1  0.0000000  0.6508444  3
    482    481    480    509     1  0.0000000  0.6508444  3
    482    481    493    505     1  0.0000000  0.6508444  3
    482    481    493    494     1  0.0000000  0.6508444  3
    482    481    493    495     1  0.0000000  0.6508444  3
    483    481    480    484     1  0.0000000  0.6508444  3
    483    481    480    487     1  0.0000000  0.6508444  3
    483    481    480    509     1  0.0000000  0.6508444  3
    483    481    493    505     1  0.0000000  0.6508444  3
    483    481    493    494     1  0.0000000  0.6508444  3
    483    481    493    495     1  0.0000000  0.6508444  3
    484    480    487    488     1  0.0000000  0.6508444  3
    484    480    487    489     1  0.0000000  0.6508444  3
    484    496    502    503     1  0.0000000  0.6508444  3
    484    496    502    504     1  0.0000000  0.6508444  3
    485    484    480    487     1  0.0000000  0.6508444  3
    485    484    480    509     1  0.0000000  0.6508444  3
    485    484    496    502     1  0.0000000  0.6508444  3
    485    484    496    497     1  0.0000000  0.6508444  3
    485    484    496    498     1  0.0000000  0.6508444  3
    486    484    480    487     1  0.0000000  0.6508444  3
    486    484    480    509     1  0.0000000  0.6508444  3
    486    484    496    502     1  0.0000000  0.6508444  3
    486    484    496    497     1  0.0000000  0.6508444  3
    486    484    496    498     1  0.0000000  0.6508444  3
    487    490    499    500     1  0.0000000  0.6508444  3
    487    490    499    501     1  0.0000000  0.6508444  3
    488    487    480    509     1  0.0000000  0.6508444  3
    488    487    490    499     1  0.0000000  0.6508444  3
    488    487    490    491     1  0.0000000  0.6508444  3
    488    487    490    492     1  0.0000000  0.6508444  3
    489    487    480    509     1  0.0000000  0.6508444  3
    489    487    490    499     1  0.0000000  0.6508444  3
    489    487    490    491     1  0.0000000  0.6508444  3
    489    487    490    492     1  0.0000000  0.6508444  3
    490    487    480    509     1  0.0000000  0.6508444  3
    491    490    499    508     1  0.0000000  1.0460000  1
    491    490    499    508     1  0.0000000  0.0000000  3
    491    490    499    500     1  0.0000000  0.6508444  3
    491    490    499    501     1  0.0000000  0.6508444  3
    492    490    499    508     1  0.0000000  1.0460000  1
    492    490    499    508     1  0.0000000  0.0000000  3
    492    490    499    500     1  0.0000000  0.6508444  3
    492    490    499    501     1  0.0000000  0.6508444  3
    493    481    480    509     1  0.0000000  0.6508444  3
    494    493    505   1078     1  0.0000000  1.0460000  1
    494    493    505   1078     1  0.0000000  0.0000000  3
    494    493    505    506     1  0.0000000  0.6508444  3
    494    493    505    507     1  0.0000000  0.6508444  3
    495    493    505   1078     1  0.0000000  1.0460000  1
    495    493    505   1078     1  0.0000000  0.0000000  3
    495    493    505    506     1  0.0000000  0.6508444  3
    495    493    505    507     1  0.0000000  0.6508444  3
    496    484    480    509     1  0.0000000  0.6508444  3
    497    496    502   1048     1  0.0000000  1.0460000  1
    497    496    502   1048     1  0.0000000  0.0000000  3
    497    496    502    503     1  0.0000000  0.6508444  3
    497    496    502    504     1  0.0000000  0.6508444  3
    498    496    502   1048     1  0.0000000  1.0460000  1
    498    496    502   1048     1  0.0000000  0.0000000  3
    498    496    502    503     1  0.0000000  0.6508444  3
    498    496    502    504     1  0.0000000  0.6508444  3
    502   1048   1039   1040     1  0.0000000  1.6038667  3
    502   1048   1039   1041     1  0.0000000  1.6038667  3
    503    502   1048   1039     1  0.0000000  1.6038667  3
    504    502   1048   1039     1  0.0000000  1.6038667  3
    505   1078   1069   1070     1  0.0000000  1.6038667  3
    505   1078   1069   1071     1  0.0000000  1.6038667  3
    506    505   1078   1069     1  0.0000000  1.6038667  3
    507    505   1078   1069     1  0.0000000  1.6038667  3
    510    511    523    524     1  0.0000000  0.6508444  3
    510    511    523    525     1  0.0000000  0.6508444  3
    510    514    526    527     1  0.0000000  0.6508444  3
    510    514    526    528     1  0.0000000  0.6508444  3
    510    517    520    521     1  0.0000000  0.6508444  3
    510    517    520    522     1  0.0000000  0.6508444  3
    511    510    514    515     1  0.0000000  0.6508444  3
    511    510    514    516     1  0.0000000  0.6508444  3
    511    510    517    518     1  0.0000000  0.6508444  3
    511    510    517    519     1  0.0000000  0.6508444  3
    511    523    535    536     1  0.0000000  0.6508444  3
    511    523    535    537     1  0.0000000  0.6508444  3
    512    511    510    514     1  0.0000000  0.6508444  3
    512    511    510    517     1  0.0000000  0.6508444  3
    512    511    510    539     1  0.0000000  0.6508444  3
    512    511    523    535     1  0.0000000  0.6508444  3
    512    511    523    524     1  0.0000000  0.6508444  3
    512    511    523    525     1  0.0000000  0.6508444  3
    513    511    510    514     1  0.0000000  0.6508444  3
    513    511    510    517     1  0.0000000  0.6508444  3
    513    511    510    539     1  0.0000000  0.6508444  3
    513    511    523    535     1  0.0000000  0.6508444  3
    513    511    523    524     1  0.0000000  0.6508444  3
    513    511    523    525     1  0.0000000  0.6508444  3
    514    510    517    518     1  0.0000000  0.6508444  3
    514    510    517    519     1  0.0000000  0.6508444  3
    514    526    532    533     1  0.0000000  0.6508444  3
    514    526    532    534     1  0.0000000  0.6508444  3
    515    514    510    517     1  0.0000000  0.6508444  3
    515    514    510    539     1  0.0000000  0.6508444  3
    515    514    526    532     1  0.0000000  0.6508444  3
    515    514    526    527     1  0.0000000  0.6508444  3
    515    514    526    528     1  0.0000000  0.6508444  3
    516    514    510    517     1  0.0000000  0.6508444  3
    516    514    510    539     1  0.0000000  0.6508444  3
    516    514    526    532     1  0.0000000  0.6508444  3
    516    514    526    527     1  0.0000000  0.6508444  3
    516    514    526    528     1  0.0000000  0.6508444  3
    517    520    529    530     1  0.0000000  0.6508444  3
    517    520    529    531     1  0.0000000  0.6508444  3
    518    517    510    539     1  0.0000000  0.6508444  3
    518    517    520    529     1  0.0000000  0.6508444  3
    518    517    520    521     1  0.0000000  0.6508444  3
    518    517    520    522     1  0.0000000  0.6508444  3
    519    517    510    539     1  0.0000000  0.6508444  3
    519    517    520    529     1  0.0000000  0.6508444  3
    519    517    520    521     1  0.0000000  0.6508444  3
    519    517    520    522     1  0.0000000  0.6508444  3
    520    517    510    539     1  0.0000000  0.6508444  3
    521    520    529    538     1  0.0000000  1.0460000  1
    521    520    529    538     1  0.0000000  0.0000000  3
    521    520    529    530     1  0.0000000  0.6508444  3
    521    520    529    531     1  0.0000000  0.6508444  3
    522    520    529    538     1  0.0000000  1.0460000  1
    522    520    529    538     1  0.0000000  0.0000000  3
    522    520    529    530     1  0.0000000  0.6508444  3
    522    520    529    531     1  0.0000000  0.6508444  3
    523    511    510    539     1  0.0000000  0.6508444  3
    524    523    535   1138     1  0.0000000  1.0460000  1
    524    523    535   1138     1  0.0000000  0.0000000  3
    524    523    535    536     1  0.0000000  0.6508444  3
    524    523    535    537     1  0.0000000  0.6508444  3
    525    523    535   1138     1  0.0000000  1.0460000  1
    525    523    535   1138     1  0.0000000  0.0000000  3
    525    523    535    536     1  0.0000000  0.6508444  3
    525    523    535    537     1  0.0000000  0.6508444  3
    526    514    510    539     1  0.0000000  0.6508444  3
    527    526    532   1108     1  0.0000000  1.0460000  1
    527    526    532   1108     1  0.0000000  0.0000000  3
    527    526    532    533     1  0.0000000  0.6508444  3
    527    526    532    534     1  0.0000000  0.6508444  3
    528    526    532   1108     1  0.0000000  1.0460000  1
    528    526    532   1108     1  0.0000000  0.0000000  3
    528    526    532    533     1  0.0000000  0.6508444  3
    528    526    532    534     1  0.0000000  0.6508444  3
    532   1108   1099   1100     1  0.0000000  1.6038667  3
    532   1108   1099   1101     1  0.0000000  1.6038667  3
    533    532   1108   1099     1  0.0000000  1.6038667  3
    534    532   1108   1099     1  0.0000000  1.6038667  3
    535   1138   1129   1130     1  0.0000000  1.6038667  3
    535   1138   1129   1131     1  0.0000000  1.6038667  3
    536    535   1138   1129     1  0.0000000  1.6038667  3
    537    535   1138   1129     1  0.0000000  1.6038667  3
    540    541    553    554     1  0.0000000  0.6508444  3
    540    541    553    555     1  0.0000000  0.6508444  3
    540    544    556    557     1  0.0000000  0.6508444  3
    540    544    556    558     1  0.0000000  0.6508444  3
    540    547    550    551     1  0.0000000  0.6508444  3
    540    547    550    552     1  0.0000000  0.6508444  3
    541    540    544    545     1  0.0000000  0.6508444  3
    541    540    544    546     1  0.0000000  0.6508444  3
    541    540    547    548     1  0.0000000  0.6508444  3
    541    540    547    549     1  0.0000000  0.6508444  3
    541    553    565    566     1  0.0000000  0.6508444  3
    541    553    565    567     1  0.0000000  0.6508444  3
    542    541    540    544     1  0.0000000  0.6508444  3
    542    541    540    547     1  0.0000000  0.6508444  3
    542    541    540    569     1  0.0000000  0.6508444  3
    542    541    553    565     1  0.0000000  0.6508444  3
    542    541    553    554     1  0.0000000  0.6508444  3
    542    541    553    555     1  0.0000000  0.6508444  3
    543    541    540    544     1  0.0000000  0.6508444  3
    543    541    540    547     1  0.0000000  0.6508444  3
    543    541    540    569     1  0.0000000  0.6508444  3
    543    541    553    565     1  0.0000000  0.6508444  3
    543    541    553    554     1  0.0000000  0.6508444  3
    543    541    553    555     1  0.0000000  0.6508444  3
    544    540    547    548     1  0.0000000  0.6508444  3
    544    540    547    549     1  0.0000000  0.6508444  3
    544    556    562    563     1  0.0000000  0.6508444  3
    544    556    562    564     1  0.0000000  0.6508444  3
    545    544    540    547     1  0.0000000  0.6508444  3
    545    544    540    569     1  0.0000000  0.6508444  3
    545    544    556    562     1  0.0000000  0.6508444  3
    545    544    556    557     1  0.0000000  0.6508444  3
    545    544    556    558     1  0.0000000  0.6508444  3
    546    544    540    547     1  0.0000000  0.6508444  3
    546    544    540    569     1  0.0000000  0.6508444  3
    546    544    556    562     1  0.0000000  0.6508444  3
    546    544    556    557     1  0.0000000  0.6508444  3
    546    544    556    558     1  0.0000000  0.6508444  3
    547    550    559    560     1  0.0000000  0.6508444  3
    547    550    559    561     1  0.0000000  0.6508444  3
    548    547    540    569     1  0.0000000  0.6508444  3
    548    547    550    559     1  0.0000000  0.6508444  3
    548    547    550    551     1  0.0000000  0.6508444  3
    548    547    550    552     1  0.0000000  0.6508444  3
    549    547    540    569     1  0.0000000  0.6508444  3
    549    547    550    559     1  0.0000000  0.6508444  3
    549    547    550    551     1  0.0000000  0.6508444  3
    549    547    550    552     1  0.0000000  0.6508444  3
    550    547    540    569     1  0.0000000  0.6508444  3
    551    550    559    568     1  0.0000000  1.0460000  1
    551    550    559    568     1  0.0000000  0.0000000  3
    551    550    559    560     1  0.0000000  0.6508444  3
    551    550    559    561     1  0.0000000  0.6508444  3
    552    550    559    568     1  0.0000000  1.0460000  1
    552    550    559    568     1  0.0000000  0.0000000  3
    552    550    559    560     1  0.0000000  0.6508444  3
    552    550    559    561     1  0.0000000  0.6508444  3
    553    541    540    569     1  0.0000000  0.6508444  3
    554    553    565   1198     1  0.0000000  1.0460000  1
    554    553    565   1198     1  0.0000000  0.0000000  3
    554    553    565    566     1  0.0000000  0.6508444  3
    554    553    565    567     1  0.0000000  0.6508444  3
    555    553    565   1198     1  0.0000000  1.0460000  1
    555    553    565   1198     1  0.0000000  0.0000000  3
    555    553    565    566     1  0.0000000  0.6508444  3
    555    553    565    567     1  0.0000000  0.6508444  3
    556    544    540    569     1  0.0000000  0.6508444  3
    557    556    562   1168     1  0.0000000  1.0460000  1
    557    556    562   1168     1  0.0000000  0.0000000  3
    557    556    562    563     1  0.0000000  0.6508444  3
    557    556    562    564     1  0.0000000  0.6508444  3
    558    556    562   1168     1  0.0000000  1.0460000  1
    558    556    562   1168     1  0.0000000  0.0000000  3
    558    556    562    563     1  0.0000000  0.6508444  3
    558    556    562    564     1  0.0000000  0.6508444  3
    562   1168   1159   1160     1  0.0000000  1.6038667  3
    562   1168   1159   1161     1  0.0000000  1.6038667  3
    563    562   1168   1159     1  0.0000000  1.6038667  3
    564    562   1168   1159     1  0.0000000  1.6038667  3
    565   1198   1189   1190     1  0.0000000  1.6038667  3
    565   1198   1189   1191     1  0.0000000  1.6038667  3
    566    565   1198   1189     1  0.0000000  1.6038667  3
    567    565   1198   1189     1  0.0000000  1.6038667  3
    570    571    583    584     1  0.0000000  0.6508444  3
    570    571    583    585     1  0.0000000  0.6508444  3
    570    574    586    587     1  0.0000000  0.6508444  3
    570    574    586    588     1  0.0000000  0.6508444  3
    570    577    580    581     1  0.0000000  0.6508444  3
    570    577    580    582     1  0.0000000  0.6508444  3
    571    570    574    575     1  0.0000000  0.6508444  3
    571    570    574    576     1  0.0000000  0.6508444  3
    571    570    577    578     1  0.0000000  0.6508444  3
    571    570    577    579     1  0.0000000  0.6508444  3
    571    583    595    596     1  0.0000000  0.6508444  3
    571    583    595    597     1  0.0000000  0.6508444  3
    572    571    570    574     1  0.0000000  0.6508444  3
    572    571    570    577     1  0.0000000  0.6508444  3
    572    571    570    599     1  0.0000000  0.6508444  3
    572    571    583    595     1  0.0000000  0.6508444  3
    572    571    583    584     1  0.0000000  0.6508444  3
    572    571    583    585     1  0.0000000  0.6508444  3
    573    571    570    574     1  0.0000000  0.6508444  3
    573    571    570    577     1  0.0000000  0.6508444  3
    573    571    570    599     1  0.0000000  0.6508444  3
    573    571    583    595     1  0.0000000  0.6508444  3
    573    571    583    584     1  0.0000000  0.6508444  3
    573    571    583    585     1  0.0000000  0.6508444  3
    574    570    577    578     1  0.0000000  0.6508444  3
    574    570    577    579     1  0.0000000  0.6508444  3
    574    586    592    593     1  0.0000000  0.6508444  3
    574    586    592    594     1  0.0000000  0.6508444  3
    575    574    570    577     1  0.0000000  0.6508444  3
    575    574    570    599     1  0.0000000  0.6508444  3
    575    574    586    592     1  0.0000000  0.6508444  3
    575    574    586    587     1  0.0000000  0.6508444  3
    575    574    586    588     1  0.0000000  0.6508444  3
    576    574    570    577     1  0.0000000  0.6508444  3
    576    574    570    599     1  0.0000000  0.6508444  3
    576    574    586    592     1  0.0000000  0.6508444  3
    576    574    586    587     1  0.0000000  0.6508444  3
    576    574    586    588     1  0.0000000  0.6508444  3
    577    580    589    590     1  0.0000000  0.6508444  3
    577    580    589    591     1  0.0000000  0.6508444  3
    578    577    570    599     1  0.0000000  0.6508444  3
    578    577    580    589     1  0.0000000  0.6508444  3
    578    577    580    581     1  0.0000000  0.6508444  3
    578    577    580    582     1  0.0000000  0.6508444  3
    579    577    570    599     1  0.0000000  0.6508444  3
    579    577    580    589     1  0.0000000  0.6508444  3
    579    577    580    581     1  0.0000000  0.6508444  3
    579    577    580    582     1  0.0000000  0.6508444  3
    580    577    570    599     1  0.0000000  0.6508444  3
    581    580    589    598     1  0.0000000  1.0460000  1
    581    580    589    598     1  0.0000000  0.0000000  3
    581    580    589    590     1  0.0000000  0.6508444  3
    581    580    589    591     1  0.0000000  0.6508444  3
    582    580    589    598     1  0.0000000  1.0460000  1
    582    580    589    598     1  0.0000000  0.0000000  3
    582    580    589    590     1  0.0000000  0.6508444  3
    582    580    589    591     1  0.0000000  0.6508444  3
    583    571    570    599     1  0.0000000  0.6508444  3
    584    583    595   1258     1  0.0000000  1.0460000  1
    584    583    595   1258     1  0.0000000  0.0000000  3
    584    583    595    596     1  0.0000000  0.6508444  3
    584    583    595    597     1  0.0000000  0.6508444  3
    585    583    595   1258     1  0.0000000  1.0460000  1
    585    583    595   1258     1  0.0000000  0.0000000  3
    585    583    595    596     1  0.0000000  0.6508444  3
    585    583    595    597     1  0.0000000  0.6508444  3
    586    574    570    599     1  0.0000000  0.6508444  3
    587    586    592   1228     1  0.0000000  1.0460000  1
    587    586    592   1228     1  0.0000000  0.0000000  3
    587    586    592    593     1  0.0000000  0.6508444  3
    587    586    592    594     1  0.0000000  0.6508444  3
    588    586    592   1228     1  0.0000000  1.0460000  1
    588    586    592   1228     1  0.0000000  0.0000000  3
    588    586    592    593     1  0.0000000  0.6508444  3
    588    586    592    594     1  0.0000000  0.6508444  3
    592   1228   1219   1220     1  0.0000000  1.6038667  3
    592   1228   1219   1221     1  0.0000000  1.6038667  3
    593    592   1228   1219     1  0.0000000  1.6038667  3
    594    592   1228   1219     1  0.0000000  1.6038667  3
    595   1258   1249   1250     1  0.0000000  1.6038667  3
    595   1258   1249   1251     1  0.0000000  1.6038667  3
    596    595   1258   1249     1  0.0000000  1.6038667  3
    597    595   1258   1249     1  0.0000000  1.6038667  3
    600    601    613    614     1  0.0000000  0.6508444  3
    600    601    613    615     1  0.0000000  0.6508444  3
    600    604    616    617     1  0.0000000  0.6508444  3
    600    604    616    618     1  0.0000000  0.6508444  3
    600    607    610    611     1  0.0000000  0.6508444  3
    600    607    610    612     1  0.0000000  0.6508444  3
    601    600    604    605     1  0.0000000  0.6508444  3
    601    600    604    606     1  0.0000000  0.6508444  3
    601    600    607    608     1  0.0000000  0.6508444  3
    601    600    607    609     1  0.0000000  0.6508444  3
    601    613    625    626     1  0.0000000  0.6508444  3
    601    613    625    627     1  0.0000000  0.6508444  3
    602    601    600    604     1  0.0000000  0.6508444  3
    602    601    600    607     1  0.0000000  0.6508444  3
    602    601    600    629     1  0.0000000  0.6508444  3
    602    601    613    625     1  0.0000000  0.6508444  3
    602    601    613    614     1  0.0000000  0.6508444  3
    602    601    613    615     1  0.0000000  0.6508444  3
    603    601    600    604     1  0.0000000  0.6508444  3
    603    601    600    607     1  0.0000000  0.6508444  3
    603    601    600    629     1  0.0000000  0.6508444  3
    603    601    613    625     1  0.0000000  0.6508444  3
    603    601    613    614     1  0.0000000  0.6508444  3
    603    601    613    615     1  0.0000000  0.6508444  3
    604    600    607    608     1  0.0000000  0.6508444  3
    604    600    607    609     1  0.0000000  0.6508444  3
    604    616    622    623     1  0.0000000  0.6508444  3
    604    616    622    624     1  0.0000000  0.6508444  3
    605    604    600    607     1  0.0000000  0.6508444  3
    605    604    600    629     1  0.0000000  0.6508444  3
    605    604    616    622     1  0.0000000  0.6508444  3
    605    604    616    617     1  0.0000000  0.6508444  3
    605    604    616    618     1  0.0000000  0.6508444  3
    606    604    600    607     1  0.0000000  0.6508444  3
    606    604    600    629     1  0.0000000  0.6508444  3
    606    604    616    622     1  0.0000000  0.6508444  3
    606    604    616    617     1  0.0000000  0.6508444  3
    606    604    616    618     1  0.0000000  0.6508444  3
    607    610    619    620     1  0.0000000  0.6508444  3
    607    610    619    621     1  0.0000000  0.6508444  3
    608    607    600    629     1  0.0000000  0.6508444  3
    608    607    610    619     1  0.0000000  0.6508444  3
    608    607    610    611     1  0.0000000  0.6508444  3
    608    607    610    612     1  0.0000000  0.6508444  3
    609    607    600    629     1  0.0000000  0.6508444  3
    609    607    610    619     1  0.0000000  0.6508444  3
    609    607    610    611     1  0.0000000  0.6508444  3
    609    607    610    612     1  0.0000000  0.6508444  3
    610    607    600    629     1  0.0000000  0.6508444  3
    611    610    619    628     1  0.0000000  1.0460000  1
    611    610    619    628     1  0.0000000  0.0000000  3
    611    610    619    620     1  0.0000000  0.6508444  3
    611    610    619    621     1  0.0000000  0.6508444  3
    612    610    619    628     1  0.0000000  1.0460000  1
    612    610    619    628     1  0.0000000  0.0000000  3
    612    610    619    620     1  0.0000000  0.6508444  3
    612    610    619    621     1  0.0000000  0.6508444  3
    613    601    600    629     1  0.0000000  0.6508444  3
    614    613    625   1318     1  0.0000000  1.0460000  1
    614    613    625   1318     1  0.0000000  0.0000000  3
    614    613    625    626     1  0.0000000  0.6508444  3
    614    613    625    627     1  0.0000000  0.6508444  3
    615    613    625   1318     1  0.0000000  1.0460000  1
    615    613    625   1318     1  0.0000000  0.0000000  3
    615    613    625    626     1  0.0000000  0.6508444  3
    615    613    625    627     1  0.0000000  0.6508444  3
    616    604    600    629     1  0.0000000  0.6508444  3
    617    616    622   1288     1  0.0000000  1.0460000  1
    617    616    622   1288     1  0.0000000  0.0000000  3
    617    616    622    623     1  0.0000000  0.6508444  3
    617    616    622    624     1  0.0000000  0.6508444  3
    618    616    622   1288     1  0.0000000  1.0460000  1
    618    616    622   1288     1  0.0000000  0.0000000  3
    618    616    622    623     1  0.0000000  0.6508444  3
    618    616    622    624     1  0.0000000  0.6508444  3
    622   1288   1279   1280     1  0.0000000  1.6038667  3
    622   1288   1279   1281     1  0.0000000  1.6038667  3
    623    622   1288   1279     1  0.0000000  1.6038667  3
    624    622   1288   1279     1  0.0000000  1.6038667  3
    625   1318   1309   1310     1  0.0000000  1.6038667  3
    625   1318   1309   1311     1  0.0000000  1.6038667  3
    626    625   1318   1309     1  0.0000000  1.6038667  3
    627    625   1318   1309     1  0.0000000  1.6038667  3
    630    631    643    644     1  0.0000000  0.6508444  3
    630    631    643    645     1  0.0000000  0.6508444  3
    630    634    646    647     1  0.0000000  0.6508444  3
    630    634    646    648     1  0.0000000  0.6508444  3
    630    637    640    641     1  0.0000000  0.6508444  3
    630    637    640    642     1  0.0000000  0.6508444  3
    631    630    634    635     1  0.0000000  0.6508444  3
    631    630    634    636     1  0.0000000  0.6508444  3
    631    630    637    638     1  0.0000000  0.6508444  3
    631    630    637    639     1  0.0000000  0.6508444  3
    631    643    655    656     1  0.0000000  0.6508444  3
    631    643    655    657     1  0.0000000  0.6508444  3
    632    631    630    634     1  0.0000000  0.6508444  3
    632    631    630    637     1  0.0000000  0.6508444  3
    632    631    630    659     1  0.0000000  0.6508444  3
    632    631    643    655     1  0.0000000  0.6508444  3
    632    631    643    644     1  0.0000000  0.6508444  3
    632    631    643    645     1  0.0000000  0.6508444  3
    633    631    630    634     1  0.0000000  0.6508444  3
    633    631    630    637     1  0.0000000  0.6508444  3
    633    631    630    659     1  0.0000000  0.6508444  3
    633    631    643    655     1  0.0000000  0.6508444  3
    633    631    643    644     1  0.0000000  0.6508444  3
    633    631    643    645     1  0.0000000  0.6508444  3
    634    630    637    638     1  0.0000000  0.6508444  3
    634    630    637    639     1  0.0000000  0.6508444  3
    634    646    652    653     1  0.0000000  0.6508444  3
    634    646    652    654     1  0.0000000  0.6508444  3
    635    634    630    637     1  0.0000000  0.6508444  3
    635    634    630    659     1  0.0000000  0.6508444  3
    635    634    646    652     1  0.0000000  0.6508444  3
    635    634    646    647     1  0.0000000  0.6508444  3
    635    634    646    648     1  0.0000000  0.6508444  3
    636    634    630    637     1  0.0000000  0.6508444  3
    636    634    630    659     1  0.0000000  0.6508444  3
    636    634    646    652     1  0.0000000  0.6508444  3
    636    634    646    647     1  0.0000000  0.6508444  3
    636    634    646    648     1  0.0000000  0.6508444  3
    637    640    649    650     1  0.0000000  0.6508444  3
    637    640    649    651     1  0.0000000  0.6508444  3
    638    637    630    659     1  0.0000000  0.6508444  3
    638    637    640    649     1  0.0000000  0.6508444  3
    638    637    640    641     1  0.0000000  0.6508444  3
    638    637    640    642     1  0.0000000  0.6508444  3
    639    637    630    659     1  0.0000000  0.6508444  3
    639    637    640    649     1  0.0000000  0.6508444  3
    639    637    640    641     1  0.0000000  0.6508444  3
    639    637    640    642     1  0.0000000  0.6508444  3
    640    637    630    659     1  0.0000000  0.6508444  3
    641    640    649    658     1  0.0000000  1.0460000  1
    641    640    649    658     1  0.0000000  0.0000000  3
    641    640    649    650     1  0.0000000  0.6508444  3
    641    640    649    651     1  0.0000000  0.6508444  3
    642    640    649    658     1  0.0000000  1.0460000  1
    642    640    649    658     1  0.0000000  0.0000000  3
    642    640    649    650     1  0.0000000  0.6508444  3
    642    640    649    651     1  0.0000000  0.6508444  3
    643    631    630    659     1  0.0000000  0.6508444  3
    644    643    655   1378     1  0.0000000  1.0460000  1
    644    643    655   1378     1  0.0000000  0.0000000  3
    644    643    655    656     1  0.0000000  0.6508444  3
    644    643    655    657     1  0.0000000  0.6508444  3
    645    643    655   1378     1  0.0000000  1.0460000  1
    645    643    655   1378     1  0.0000000  0.0000000  3
    645    643    655    656     1  0.0000000  0.6508444  3
    645    643    655    657     1  0.0000000  0.6508444  3
    646    634    630    659     1  0.0000000  0.6508444  3
    647    646    652   1348     1  0.0000000  1.0460000  1
    647    646    652   1348     1  0.0000000  0.0000000  3
    647    646    652    653     1  0.0000000  0.6508444  3
    647    646    652    654     1  0.0000000  0.6508444  3
    648    646    652   1348     1  0.0000000  1.0460000  1
    648    646    652   1348     1  0.0000000  0.0000000  3
    648    646    652    653     1  0.0000000  0.6508444  3
    648    646    652    654     1  0.0000000  0.6508444  3
    652   1348   1339   1340     1  0.0000000  1.6038667  3
    652   1348   1339   1341     1  0.0000000  1.6038667  3
    653    652   1348   1339     1  0.0000000  1.6038667  3
    654    652   1348   1339     1  0.0000000  1.6038667  3
    655   1378   1369   1370     1  0.0000000  1.6038667  3
    655   1378   1369   1371     1  0.0000000  1.6038667  3
    656    655   1378   1369     1  0.0000000  1.6038667  3
    657    655   1378   1369     1  0.0000000  1.6038667  3
    660    661    673    674     1  0.0000000  0.6508444  3
    660    661    673    675     1  0.0000000  0.6508444  3
    660    664    676    677     1  0.0000000  0.6508444  3
    660    664    676    678     1  0.0000000  0.6508444  3
    660    667    670    671     1  0.0000000  0.6508444  3
    660    667    670    672     1  0.0000000  0.6508444  3
    661    660    664    665     1  0.0000000  0.6508444  3
    661    660    664    666     1  0.0000000  0.6508444  3
    661    660    667    668     1  0.0000000  0.6508444  3
    661    660    667    669     1  0.0000000  0.6508444  3
    661    673    685    686     1  0.0000000  0.6508444  3
    661    673    685    687     1  0.0000000  0.6508444  3
    662    661    660    664     1  0.0000000  0.6508444  3
    662    661    660    667     1  0.0000000  0.6508444  3
    662    661    660    689     1  0.0000000  0.6508444  3
    662    661    673    685     1  0.0000000  0.6508444  3
    662    661    673    674     1  0.0000000  0.6508444  3
    662    661    673    675     1  0.0000000  0.6508444  3
    663    661    660    664     1  0.0000000  0.6508444  3
    663    661    660    667     1  0.0000000  0.6508444  3
    663    661    660    689     1  0.0000000  0.6508444  3
    663    661    673    685     1  0.0000000  0.6508444  3
    663    661    673    674     1  0.0000000  0.6508444  3
    663    661    673    675     1  0.0000000  0.6508444  3
    664    660    667    668     1  0.0000000  0.6508444  3
    664    660    667    669     1  0.0000000  0.6508444  3
    664    676    682    683     1  0.0000000  0.6508444  3
    664    676    682    684     1  0.0000000  0.6508444  3
    665    664    660    667     1  0.0000000  0.6508444  3
    665    664    660    689     1  0.0000000  0.6508444  3
    665    664    676    682     1  0.0000000  0.6508444  3
    665    664    676    677     1  0.0000000  0.6508444  3
    665    664    676    678     1  0.0000000  0.6508444  3
    666    664    660    667     1  0.0000000  0.6508444  3
    666    664    660    689     1  0.0000000  0.6508444  3
    666    664    676    682     1  0.0000000  0.6508444  3
    666    664    676    677     1  0.0000000  0.6508444  3
    666    664    676    678     1  0.0000000  0.6508444  3
    667    670    679    680     1  0.0000000  0.6508444  3
    667    670    679    681     1  0.0000000  0.6508444  3
    668    667    660    689     1  0.0000000  0.6508444  3
    668    667    670    679     1  0.0000000  0.6508444  3
    668    667    670    671     1  0.0000000  0.6508444  3
    668    667    670    672     1  0.0000000  0.6508444  3
    669    667    660    689     1  0.0000000  0.6508444  3
    669    667    670    679     1  0.0000000  0.6508444  3
    669    667    670    671     1  0.0000000  0.6508444  3
    669    667    670    672     1  0.0000000  0.6508444  3
    670    667    660    689     1  0.0000000  0.6508444  3
    671    670    679    688     1  0.0000000  1.0460000  1
    671    670    679    688     1  0.0000000  0.0000000  3
    671    670    679    680     1  0.0000000  0.6508444  3
    671    670    679    681     1  0.0000000  0.6508444  3
    672    670    679    688     1  0.0000000  1.0460000  1
    672    670    679    688     1  0.0000000  0.0000000  3
    672    670    679    680     1  0.0000000  0.6508444  3
    672    670    679    681     1  0.0000000  0.6508444  3
    673    661    660    689     1  0.0000000  0.6508444  3
    674    673    685   1438     1  0.0000000  1.0460000  1
    674    673    685   1438     1  0.0000000  0.0000000  3
    674    673    685    686     1  0.0000000  0.6508444  3
    674    673    685    687     1  0.0000000  0.6508444  3
    675    673    685   1438     1  0.0000000  1.0460000  1
    675    673    685   1438     1  0.0000000  0.0000000  3
    675    673    685    686     1  0.0000000  0.6508444  3
    675    673    685    687     1  0.0000000  0.6508444  3
    676    664    660    689     1  0.0000000  0.6508444  3
    677    676    682   1408     1  0.0000000  1.0460000  1
    677    676    682   1408     1  0.0000000  0.0000000  3
    677    676    682    683     1  0.0000000  0.6508444  3
    677    676    682    684     1  0.0000000  0.6508444  3
    678    676    682   1408     1  0.0000000  1.0460000  1
    678    676    682   1408     1  0.0000000  0.0000000  3
    678    676    682    683     1  0.0000000  0.6508444  3
    678    676    682    684     1  0.0000000  0.6508444  3
    682   1408   1399   1400     1  0.0000000  1.6038667  3
    682   1408   1399   1401     1  0.0000000  1.6038667  3
    683    682   1408   1399     1  0.0000000  1.6038667  3
    684    682   1408   1399     1  0.0000000  1.6038667  3
    685   1438   1429   1430     1  0.0000000  1.6038667  3
    685   1438   1429   1431     1  0.0000000  1.6038667  3
    686    685   1438   1429     1  0.0000000  1.6038667  3
    687    685   1438   1429     1  0.0000000  1.6038667  3
    690    691    703    704     1  0.0000000  0.6508444  3
    690    691    703    705     1  0.0000000  0.6508444  3
    690    694    706    707     1  0.0000000  0.6508444  3
    690    694    706    708     1  0.0000000  0.6508444  3
    690    697    700    701     1  0.0000000  0.6508444  3
    690    697    700    702     1  0.0000000  0.6508444  3
    691    690    694    695     1  0.0000000  0.6508444  3
    691    690    694    696     1  0.0000000  0.6508444  3
    691    690    697    698     1  0.0000000  0.6508444  3
    691    690    697    699     1  0.0000000  0.6508444  3
    691    703    715    716     1  0.0000000  0.6508444  3
    691    703    715    717     1  0.0000000  0.6508444  3
    692    691    690    694     1  0.0000000  0.6508444  3
    692    691    690    697     1  0.0000000  0.6508444  3
    692    691    690    719     1  0.0000000  0.6508444  3
    692    691    703    715     1  0.0000000  0.6508444  3
    692    691    703    704     1  0.0000000  0.6508444  3
    692    691    703    705     1  0.0000000  0.6508444  3
    693    691    690    694     1  0.0000000  0.6508444  3
    693    691    690    697     1  0.0000000  0.6508444  3
    693    691    690    719     1  0.0000000  0.6508444  3
    693    691    703    715     1  0.0000000  0.6508444  3
    693    691    703    704     1  0.0000000  0.6508444  3
    693    691    703    705     1  0.0000000  0.6508444  3
    694    690    697    698     1  0.0000000  0.6508444  3
    694    690    697    699     1  0.0000000  0.6508444  3
    694    706    712    713     1  0.0000000  0.6508444  3
    694    706    712    714     1  0.0000000  0.6508444  3
    695    694    690    697     1  0.0000000  0.6508444  3
    695    694    690    719     1  0.0000000  0.6508444  3
    695    694    706    712     1  0.0000000  0.6508444  3
    695    694    706    707     1  0.0000000  0.6508444  3
    695    694    706    708     1  0.0000000  0.6508444  3
    696    694    690    697     1  0.0000000  0.6508444  3
    696    694    690    719     1  0.0000000  0.6508444  3
    696    694    706    712     1  0.0000000  0.6508444  3
    696    694    706    707     1  0.0000000  0.6508444  3
    696    694    706    708     1  0.0000000  0.6508444  3
    697    700    709    710     1  0.0000000  0.6508444  3
    697    700    709    711     1  0.0000000  0.6508444  3
    698    697    690    719     1  0.0000000  0.6508444  3
    698    697    700    709     1  0.0000000  0.6508444  3
    698    697    700    701     1  0.0000000  0.6508444  3
    698    697    700    702     1  0.0000000  0.6508444  3
    699    697    690    719     1  0.0000000  0.6508444  3
    699    697    700    709     1  0.0000000  0.6508444  3
    699    697    700    701     1  0.0000000  0.6508444  3
    699    697    700    702     1  0.0000000  0.6508444  3
    700    697    690    719     1  0.0000000  0.6508444  3
    701    700    709    718     1  0.0000000  1.0460000  1
    701    700    709    718     1  0.0000000  0.0000000  3
    701    700    709    710     1  0.0000000  0.6508444  3
    701    700    709    711     1  0.0000000  0.6508444  3
    702    700    709    718     1  0.0000000  1.0460000  1
    702    700    709    718     1  0.0000000  0.0000000  3
    702    700    709    710     1  0.0000000  0.6508444  3
    702    700    709    711     1  0.0000000  0.6508444  3
    703    691    690    719     1  0.0000000  0.6508444  3
    704    703    715   1498     1  0.0000000  1.0460000  1
    704    703    715   1498     1  0.0000000  0.0000000  3
    704    703    715    716     1  0.0000000  0.6508444  3
    704    703    715    717     1  0.0000000  0.6508444  3
    705    703    715   1498     1  0.0000000  1.0460000  1
    705    703    715   1498     1  0.0000000  0.0000000  3
    705    703    715    716     1  0.0000000  0.6508444  3
    705    703    715    717     1  0.0000000  0.6508444  3
    706    694    690    719     1  0.0000000  0.6508444  3
    707    706    712   1468     1  0.0000000  1.0460000  1
    707    706    712   1468     1  0.0000000  0.0000000  3
    707    706    712    713     1  0.0000000  0.6508444  3
    707    706    712    714     1  0.0000000  0.6508444  3
    708    706    712   1468     1  0.0000000  1.0460000  1
    708    706    712   1468     1  0.0000000  0.0000000  3
    708    706    712    713     1  0.0000000  0.6508444  3
    708    706    712    714     1  0.0000000  0.6508444  3
    712   1468   1459   1460     1  0.0000000  1.6038667  3
    712   1468   1459   1461     1  0.0000000  1.6038667  3
    713    712   1468   1459     1  0.0000000  1.6038667  3
    714    712   1468   1459     1  0.0000000  1.6038667  3
    715   1498   1489   1490     1  0.0000000  1.6038667  3
    715   1498   1489   1491     1  0.0000000  1.6038667  3
    716    715   1498   1489     1  0.0000000  1.6038667  3
    717    715   1498   1489     1  0.0000000  1.6038667  3
    720    721    733    734     1  0.0000000  0.6508444  3
    720    721    733    735     1  0.0000000  0.6508444  3
    720    724    736    737     1  0.0000000  0.6508444  3
    720    724    736    738     1  0.0000000  0.6508444  3
    720    727    730    731     1  0.0000000  0.6508444  3
    720    727    730    732     1  0.0000000  0.6508444  3
    721    720    724    725     1  0.0000000  0.6508444  3
    721    720    724    726     1  0.0000000  0.6508444  3
    721    720    727    728     1  0.0000000  0.6508444  3
    721    720    727    729     1  0.0000000  0.6508444  3
    721    733    745    746     1  0.0000000  0.6508444  3
    721    733    745    747     1  0.0000000  0.6508444  3
    722    721    720    724     1  0.0000000  0.6508444  3
    722    721    720    727     1  0.0000000  0.6508444  3
    722    721    720    749     1  0.0000000  0.6508444  3
    722    721    733    745     1  0.0000000  0.6508444  3
    722    721    733    734     1  0.0000000  0.6508444  3
    722    721    733    735     1  0.0000000  0.6508444  3
    723    721    720    724     1  0.0000000  0.6508444  3
    723    721    720    727     1  0.0000000  0.6508444  3
    723    721    720    749     1  0.0000000  0.6508444  3
    723    721    733    745     1  0.0000000  0.6508444  3
    723    721    733    734     1  0.0000000  0.6508444  3
    723    721    733    735     1  0.0000000  0.6508444  3
    724    720    727    728     1  0.0000000  0.6508444  3
    724    720    727    729     1  0.0000000  0.6508444  3
    724    736    742    743     1  0.0000000  0.6508444  3
    724    736    742    744     1  0.0000000  0.6508444  3
    725    724    720    727     1  0.0000000  0.6508444  3
    725    724    720    749     1  0.0000000  0.6508444  3
    725    724    736    742     1  0.0000000  0.6508444  3
    725    724    736    737     1  0.0000000  0.6508444  3
    725    724    736    738     1  0.0000000  0.6508444  3
    726    724    720    727     1  0.0000000  0.6508444  3
    726    724    720    749     1  0.0000000  0.6508444  3
    726    724    736    742     1  0.0000000  0.6508444  3
    726    724    736    737     1  0.0000000  0.6508444  3
    726    724    736    738     1  0.0000000  0.6508444  3
    727    730    739    740     1  0.0000000  0.6508444  3
    727    730    739    741     1  0.0000000  0.6508444  3
    728    727    720    749     1  0.0000000  0.6508444  3
    728    727    730    739     1  0.0000000  0.6508444  3
    728    727    730    731     1  0.0000000  0.6508444  3
    728    727    730    732     1  0.0000000  0.6508444  3
    729    727    720    749     1  0.0000000  0.6508444  3
    729    727    730    739     1  0.0000000  0.6508444  3
    729    727    730    731     1  0.0000000  0.6508444  3
    729    727    730    732     1  0.0000000  0.6508444  3
    730    727    720    749     1  0.0000000  0.6508444  3
    731    730    739    748     1  0.0000000  1.0460000  1
    731    730    739    748     1  0.0000000  0.0000000  3
    731    730    739    740     1  0.0000000  0.6508444  3
    731    730    739    741     1  0.0000000  0.6508444  3
    732    730    739    748     1  0.0000000  1.0460000  1
    732    730    739    748     1  0.0000000  0.0000000  3
    732    730    739    740     1  0.0000000  0.6508444  3
    732    730    739    741     1  0.0000000  0.6508444  3
    733    721    720    749     1  0.0000000  0.6508444  3
    734    733    745   1558     1  0.0000000  1.0460000  1
    734    733    745   1558     1  0.0000000  0.0000000  3
    734    733    745    746     1  0.0000000  0.6508444  3
    734    733    745    747     1  0.0000000  0.6508444  3
    735    733    745   1558     1  0.0000000  1.0460000  1
    735    733    745   1558     1  0.0000000  0.0000000  3
    735    733    745    746     1  0.0000000  0.6508444  3
    735    733    745    747     1  0.0000000  0.6508444  3
    736    724    720    749     1  0.0000000  0.6508444  3
    737    736    742   1528     1  0.0000000  1.0460000  1
    737    736    742   1528     1  0.0000000  0.0000000  3
    737    736    742    743     1  0.0000000  0.6508444  3
    737    736    742    744     1  0.0000000  0.6508444  3
    738    736    742   1528     1  0.0000000  1.0460000  1
    738    736    742   1528     1  0.0000000  0.0000000  3
    738    736    742    743     1  0.0000000  0.6508444  3
    738    736    742    744     1  0.0000000  0.6508444  3
    742   1528   1519   1520     1  0.0000000  1.6038667  3
    742   1528   1519   1521     1  0.0000000  1.6038667  3
    743    742   1528   1519     1  0.0000000  1.6038667  3
    744    742   1528   1519     1  0.0000000  1.6038667  3
    745   1558   1549   1550     1  0.0000000  1.6038667  3
    745   1558   1549   1551     1  0.0000000  1.6038667  3
    746    745   1558   1549     1  0.0000000  1.6038667  3
    747    745   1558   1549     1  0.0000000  1.6038667  3
    750    751    763    764     1  0.0000000  0.6508444  3
    750    751    763    765     1  0.0000000  0.6508444  3
    750    754    766    767     1  0.0000000  0.6508444  3
    750    754    766    768     1  0.0000000  0.6508444  3
    750    757    760    761     1  0.0000000  0.6508444  3
    750    757    760    762     1  0.0000000  0.6508444  3
    751    750    754    755     1  0.0000000  0.6508444  3
    751    750    754    756     1  0.0000000  0.6508444  3
    751    750    757    758     1  0.0000000  0.6508444  3
    751    750    757    759     1  0.0000000  0.6508444  3
    751    763    775    776     1  0.0000000  0.6508444  3
    751    763    775    777     1  0.0000000  0.6508444  3
    752    751    750    754     1  0.0000000  0.6508444  3
    752    751    750    757     1  0.0000000  0.6508444  3
    752    751    750    779     1  0.0000000  0.6508444  3
    752    751    763    775     1  0.0000000  0.6508444  3
    752    751    763    764     1  0.0000000  0.6508444  3
    752    751    763    765     1  0.0000000  0.6508444  3
    753    751    750    754     1  0.0000000  0.6508444  3
    753    751    750    757     1  0.0000000  0.6508444  3
    753    751    750    779     1  0.0000000  0.6508444  3
    753    751    763    775     1  0.0000000  0.6508444  3
    753    751    763    764     1  0.0000000  0.6508444  3
    753    751    763    765     1  0.0000000  0.6508444  3
    754    750    757    758     1  0.0000000  0.6508444  3
    754    750    757    759     1  0.0000000  0.6508444  3
    754    766    772    773     1  0.0000000  0.6508444  3
    754    766    772    774     1  0.0000000  0.6508444  3
    755    754    750    757     1  0.0000000  0.6508444  3
    755    754    750    779     1  0.0000000  0.6508444  3
    755    754    766    772     1  0.0000000  0.6508444  3
    755    754    766    767     1  0.0000000  0.6508444  3
    755    754    766    768     1  0.0000000  0.6508444  3
    756    754    750    757     1  0.0000000  0.6508444  3
    756    754    750    779     1  0.0000000  0.6508444  3
    756    754    766    772     1  0.0000000  0.6508444  3
    756    754    766    767     1  0.0000000  0.6508444  3
    756    754    766    768     1  0.0000000  0.6508444  3
    757    760    769    770     1  0.0000000  0.6508444  3
    757    760    769    771     1  0.0000000  0.6508444  3
    758    757    750    779     1  0.0000000  0.6508444  3
    758    757    760    769     1  0.0000000  0.6508444  3
    758    757    760    761     1  0.0000000  0.6508444  3
    758    757    760    762     1  0.0000000  0.6508444  3
    759    757    750    779     1  0.0000000  0.6508444  3
    759    757    760    769     1  0.0000000  0.6508444  3
    759    757    760    761     1  0.0000000  0.6508444  3
    759    757    760    762     1  0.0000000  0.6508444  3
    760    757    750    779     1  0.0000000  0.6508444  3
    761    760    769    778     1  0.0000000  1.0460000  1
    761    760    769    778     1  0.0000000  0.0000000  3
    761    760    769    770     1  0.0000000  0.6508444  3
    761    760    769    771     1  0.0000000  0.6508444  3
    762    760    769    778     1  0.0000000  1.0460000  1
    762    760    769    778     1  0.0000000  0.0000000  3
    762    760    769    770     1  0.0000000  0.6508444  3
    762    760    769    771     1  0.0000000  0.6508444  3
    763    751    750    779     1  0.0000000  0.6508444  3
    764    763    775   1618     1  0.0000000  1.0460000  1
    764    763    775   1618     1  0.0000000  0.0000000  3
    764    763    775    776     1  0.0000000  0.6508444  3
    764    763    775    777     1  0.0000000  0.6508444  3
    765    763    775   1618     1  0.0000000  1.0460000  1
    765    763    775   1618     1  0.0000000  0.0000000  3
    765    763    775    776     1  0.0000000  0.6508444  3
    765    763    775    777     1  0.0000000  0.6508444  3
    766    754    750    779     1  0.0000000  0.6508444  3
    767    766    772   1588     1  0.0000000  1.0460000  1
    767    766    772   1588     1  0.0000000  0.0000000  3
    767    766    772    773     1  0.0000000  0.6508444  3
    767    766    772    774     1  0.0000000  0.6508444  3
    768    766    772   1588     1  0.0000000  1.0460000  1
    768    766    772   1588     1  0.0000000  0.0000000  3
    768    766    772    773     1  0.0000000  0.6508444  3
    768    766    772    774     1  0.0000000  0.6508444  3
    772   1588   1579   1580     1  0.0000000  1.6038667  3
    772   1588   1579   1581     1  0.0000000  1.6038667  3
    773    772   1588   1579     1  0.0000000  1.6038667  3
    774    772   1588   1579     1  0.0000000  1.6038667  3
    775   1618   1609   1610     1  0.0000000  1.6038667  3
    775   1618   1609   1611     1  0.0000000  1.6038667  3
    776    775   1618   1609     1  0.0000000  1.6038667  3
    777    775   1618   1609     1  0.0000000  1.6038667  3
    780    781    793    794     1  0.0000000  0.6508444  3
    780    781    793    795     1  0.0000000  0.6508444  3
    780    784    796    797     1  0.0000000  0.6508444  3
    780    784    796    798     1  0.0000000  0.6508444  3
    780    787    790    791     1  0.0000000  0.6508444  3
    780    787    790    792     1  0.0000000  0.6508444  3
    781    780    784    785     1  0.0000000  0.6508444  3
    781    780    784    786     1  0.0000000  0.6508444  3
    781    780    787    788     1  0.0000000  0.6508444  3
    781    780    787    789     1  0.0000000  0.6508444  3
    781    793    805    806     1  0.0000000  0.6508444  3
    781    793    805    807     1  0.0000000  0.6508444  3
    782    781    780    784     1  0.0000000  0.6508444  3
    782    781    780    787     1  0.0000000  0.6508444  3
    782    781    780    809     1  0.0000000  0.6508444  3
    782    781    793    805     1  0.0000000  0.6508444  3
    782    781    793    794     1  0.0000000  0.6508444  3
    782    781    793    795     1  0.0000000  0.6508444  3
    783    781    780    784     1  0.0000000  0.6508444  3
    783    781    780    787     1  0.0000000  0.6508444  3
    783    781    780    809     1  0.0000000  0.6508444  3
    783    781    793    805     1  0.0000000  0.6508444  3
    783    781    793    794     1  0.0000000  0.6508444  3
    783    781    793    795     1  0.0000000  0.6508444  3
    784    780    787    788     1  0.0000000  0.6508444  3
    784    780    787    789     1  0.0000000  0.6508444  3
    784    796    802    803     1  0.0000000  0.6508444  3
    784    796    802    804     1  0.0000000  0.6508444  3
    785    784    780    787     1  0.0000000  0.6508444  3
    785    784    780    809     1  0.0000000  0.6508444  3
    785    784    796    802     1  0.0000000  0.6508444  3
    785    784    796    797     1  0.0000000  0.6508444  3
    785    784    796    798     1  0.0000000  0.6508444  3
    786    784    780    787     1  0.0000000  0.6508444  3
    786    784    780    809     1  0.0000000  0.6508444  3
    786    784    796    802     1  0.0000000  0.6508444  3
    786    784    796    797     1  0.0000000  0.6508444  3
    786    784    796    798     1  0.0000000  0.6508444  3
    787    790    799    800     1  0.0000000  0.6508444  3
    787    790    799    801     1  0.0000000  0.6508444  3
    788    787    780    809     1  0.0000000  0.6508444  3
    788    787    790    799     1  0.0000000  0.6508444  3
    788    787    790    791     1  0.0000000  0.6508444  3
    788    787    790    792     1  0.0000000  0.6508444  3
    789    787    780    809     1  0.0000000  0.6508444  3
    789    787    790    799     1  0.0000000  0.6508444  3
    789    787    790    791     1  0.0000000  0.6508444  3
    789    787    790    792     1  0.0000000  0.6508444  3
    790    787    780    809     1  0.0000000  0.6508444  3
    791    790    799    808     1  0.0000000  1.0460000  1
    791    790    799    808     1  0.0000000  0.0000000  3
    791    790    799    800     1  0.0000000  0.6508444  3
    791    790    799    801     1  0.0000000  0.6508444  3
    792    790    799    808     1  0.0000000  1.0460000  1
    792    790    799    808     1  0.0000000  0.0000000  3
    792    790    799    800     1  0.0000000  0.6508444  3
    792    790    799    801     1  0.0000000  0.6508444  3
    793    781    780    809     1  0.0000000  0.6508444  3
    794    793    805   1678     1  0.0000000  1.0460000  1
    794    793    805   1678     1  0.0000000  0.0000000  3
    794    793    805    806     1  0.0000000  0.6508444  3
    794    793    805    807     1  0.0000000  0.6508444  3
    795    793    805   1678     1  0.0000000  1.0460000  1
    795    793    805   1678     1  0.0000000  0.0000000  3
    795    793    805    806     1  0.0000000  0.6508444  3
    795    793    805    807     1  0.0000000  0.6508444  3
    796    784    780    809     1  0.0000000  0.6508444  3
    797    796    802   1648     1  0.0000000  1.0460000  1
    797    796    802   1648     1  0.0000000  0.0000000  3
    797    796    802    803     1  0.0000000  0.6508444  3
    797    796    802    804     1  0.0000000  0.6508444  3
    798    796    802   1648     1  0.0000000  1.0460000  1
    798    796    802   1648     1  0.0000000  0.0000000  3
    798    796    802    803     1  0.0000000  0.6508444  3
    798    796    802    804     1  0.0000000  0.6508444  3
    802   1648   1639   1640     1  0.0000000  1.6038667  3
    802   1648   1639   1641     1  0.0000000  1.6038667  3
    803    802   1648   1639     1  0.0000000  1.6038667  3
    804    802   1648   1639     1  0.0000000  1.6038667  3
    805   1678   1669   1670     1  0.0000000  1.6038667  3
    805   1678   1669   1671     1  0.0000000  1.6038667  3
    806    805   1678   1669     1  0.0000000  1.6038667  3
    807    805   1678   1669     1  0.0000000  1.6038667  3
    810    811    823    824     1  0.0000000  0.6508444  3
    810    811    823    825     1  0.0000000  0.6508444  3
    810    814    826    827     1  0.0000000  0.6508444  3
    810    814    826    828     1  0.0000000  0.6508444  3
    810    817    820    821     1  0.0000000  0.6508444  3
    810    817    820    822     1  0.0000000  0.6508444  3
    811    810    814    815     1  0.0000000  0.6508444  3
    811    810    814    816     1  0.0000000  0.6508444  3
    811    810    817    818     1  0.0000000  0.6508444  3
    811    810    817    819     1  0.0000000  0.6508444  3
    811    823    835    836     1  0.0000000  0.6508444  3
    811    823    835    837     1  0.0000000  0.6508444  3
    812    811    810    814     1  0.0000000  0.6508444  3
    812    811    810    817     1  0.0000000  0.6508444  3
    812    811    810    839     1  0.0000000  0.6508444  3
    812    811    823    835     1  0.0000000  0.6508444  3
    812    811    823    824     1  0.0000000  0.6508444  3
    812    811    823    825     1  0.0000000  0.6508444  3
    813    811    810    814     1  0.0000000  0.6508444  3
    813    811    810    817     1  0.0000000  0.6508444  3
    813    811    810    839     1  0.0000000  0.6508444  3
    813    811    823    835     1  0.0000000  0.6508444  3
    813    811    823    824     1  0.0000000  0.6508444  3
    813    811    823    825     1  0.0000000  0.6508444  3
    814    810    817    818     1  0.0000000  0.6508444  3
    814    810    817    819     1  0.0000000  0.6508444  3
    814    826    832    833     1  0.0000000  0.6508444  3
    814    826    832    834     1  0.0000000  0.6508444  3
    815    814    810    817     1  0.0000000  0.6508444  3
    815    814    810    839     1  0.0000000  0.6508444  3
    815    814    826    832     1  0.0000000  0.6508444  3
    815    814    826    827     1  0.0000000  0.6508444  3
    815    814    826    828     1  0.0000000  0.6508444  3
    816    814    810    817     1  0.0000000  0.6508444  3
    816    814    810    839     1  0.0000000  0.6508444  3
    816    814    826    832     1  0.0000000  0.6508444  3
    816    814    826    827     1  0.0000000  0.6508444  3
    816    814    826    828     1  0.0000000  0.6508444  3
    817    820    829    830     1  0.0000000  0.6508444  3
    817    820    829    831     1  0.0000000  0.6508444  3
    818    817    810    839     1  0.0000000  0.6508444  3
    818    817    820    829     1  0.0000000  0.6508444  3
    818    817    820    821     1  0.0000000  0.6508444  3
    818    817    820    822     1  0.0000000  0.6508444  3
    819    817    810    839     1  0.0000000  0.6508444  3
    819    817    820    829     1  0.0000000  0.6508444  3
    819    817    820    821     1  0.0000000  0.6508444  3
    819    817    820    822     1  0.0000000  0.6508444  3
    820    817    810    839     1  0.0000000  0.6508444  3
    821    820    829    838     1  0.0000000  1.0460000  1
    821    820    829    838     1  0.0000000  0.0000000  3
    821    820    829    830     1  0.0000000  0.6508444  3
    821    820    829    831     1  0.0000000  0.6508444  3
    822    820    829    838     1  0.0000000  1.0460000  1
    822    820    829    838     1  0.0000000  0.0000000  3
    822    820    829    830     1  0.0000000  0.6508444  3
    822    820    829    831     1  0.0000000  0.6508444  3
    823    811    810    839     1  0.0000000  0.6508444  3
    824    823    835   1738     1  0.0000000  1.0460000  1
    824    823    835   1738     1  0.0000000  0.0000000  3
    824    823    835    836     1  0.0000000  0.6508444  3
    824    823    835    837     1  0.0000000  0.6508444  3
    825    823    835   1738     1  0.0000000  1.0460000  1
    825    823    835   1738     1  0.0000000  0.0000000  3
    825    823    835    836     1  0.0000000  0.6508444  3
    825    823    835    837     1  0.0000000  0.6508444  3
    826    814    810    839     1  0.0000000  0.6508444  3
    827    826    832   1708     1  0.0000000  1.0460000  1
    827    826    832   1708     1  0.0000000  0.0000000  3
    827    826    832    833     1  0.0000000  0.6508444  3
    827    826    832    834     1  0.0000000  0.6508444  3
    828    826    832   1708     1  0.0000000  1.0460000  1
    828    826    832   1708     1  0.0000000  0.0000000  3
    828    826    832    833     1  0.0000000  0.6508444  3
    828    826    832    834     1  0.0000000  0.6508444  3
    832   1708   1699   1700     1  0.0000000  1.6038667  3
    832   1708   1699   1701     1  0.0000000  1.6038667  3
    833    832   1708   1699     1  0.0000000  1.6038667  3
    834    832   1708   1699     1  0.0000000  1.6038667  3
    835   1738   1729   1730     1  0.0000000  1.6038667  3
    835   1738   1729   1731     1  0.0000000  1.6038667  3
    836    835   1738   1729     1  0.0000000  1.6038667  3
    837    835   1738   1729     1  0.0000000  1.6038667  3
    840    841    853    854     1  0.0000000  0.6508444  3
    840    841    853    855     1  0.0000000  0.6508444  3
    840    844    856    857     1  0.0000000  0.6508444  3
    840    844    856    858     1  0.0000000  0.6508444  3
    840    847    850    851     1  0.0000000  0.6508444  3
    840    847    850    852     1  0.0000000  0.6508444  3
    841    840    844    845     1  0.0000000  0.6508444  3
    841    840    844    846     1  0.0000000  0.6508444  3
    841    840    847    848     1  0.0000000  0.6508444  3
    841    840    847    849     1  0.0000000  0.6508444  3
    841    853    865    866     1  0.0000000  0.6508444  3
    841    853    865    867     1  0.0000000  0.6508444  3
    842    841    840    844     1  0.0000000  0.6508444  3
    842    841    840    847     1  0.0000000  0.6508444  3
    842    841    840    869     1  0.0000000  0.6508444  3
    842    841    853    865     1  0.0000000  0.6508444  3
    842    841    853    854     1  0.0000000  0.6508444  3
    842    841    853    855     1  0.0000000  0.6508444  3
    843    841    840    844     1  0.0000000  0.6508444  3
    843    841    840    847     1  0.0000000  0.6508444  3
    843    841    840    869     1  0.0000000  0.6508444  3
    843    841    853    865     1  0.0000000  0.6508444  3
    843    841    853    854     1  0.0000000  0.6508444  3
    843    841    853    855     1  0.0000000  0.6508444  3
    844    840    847    848     1  0.0000000  0.6508444  3
    844    840    847    849     1  0.0000000  0.6508444  3
    844    856    862    863     1  0.0000000  0.6508444  3
    844    856    862    864     1  0.0000000  0.6508444  3
    845    844    840    847     1  0.0000000  0.6508444  3
    845    844    840    869     1  0.0000000  0.6508444  3
    845    844    856    862     1  0.0000000  0.6508444  3
    845    844    856    857     1  0.0000000  0.6508444  3
    845    844    856    858     1  0.0000000  0.6508444  3
    846    844    840    847     1  0.0000000  0.6508444  3
    846    844    840    869     1  0.0000000  0.6508444  3
    846    844    856    862     1  0.0000000  0.6508444  3
    846    844    856    857     1  0.0000000  0.6508444  3
    846    844    856    858     1  0.0000000  0.6508444  3
    847    850    859    860     1  0.0000000  0.6508444  3
    847    850    859    861     1  0.0000000  0.6508444  3
    848    847    840    869     1  0.0000000  0.6508444  3
    848    847    850    859     1  0.0000000  0.6508444  3
    848    847    850    851     1  0.0000000  0.6508444  3
    848    847    850    852     1  0.0000000  0.6508444  3
    849    847    840    869     1  0.0000000  0.6508444  3
    849    847    850    859     1  0.0000000  0.6508444  3
    849    847    850    851     1  0.0000000  0.6508444  3
    849    847    850    852     1  0.0000000  0.6508444  3
    850    847    840    869     1  0.0000000  0.6508444  3
    851    850    859    868     1  0.0000000  1.0460000  1
    851    850    859    868     1  0.0000000  0.0000000  3
    851    850    859    860     1  0.0000000  0.6508444  3
    851    850    859    861     1  0.0000000  0.6508444  3
    852    850    859    868     1  0.0000000  1.0460000  1
    852    850    859    868     1  0.0000000  0.0000000  3
    852    850    859    860     1  0.0000000  0.6508444  3
    852    850    859    861     1  0.0000000  0.6508444  3
    853    841    840    869     1  0.0000000  0.6508444  3
    854    853    865   1798     1  0.0000000  1.0460000  1
    854    853    865   1798     1  0.0000000  0.0000000  3
    854    853    865    866     1  0.0000000  0.6508444  3
    854    853    865    867     1  0.0000000  0.6508444  3
    855    853    865   1798     1  0.0000000  1.0460000  1
    855    853    865   1798     1  0.0000000  0.0000000  3
    855    853    865    866     1  0.0000000  0.6508444  3
    855    853    865    867     1  0.0000000  0.6508444  3
    856    844    840    869     1  0.0000000  0.6508444  3
    857    856    862   1768     1  0.0000000  1.0460000  1
    857    856    862   1768     1  0.0000000  0.0000000  3
    857    856    862    863     1  0.0000000  0.6508444  3
    857    856    862    864     1  0.0000000  0.6508444  3
    858    856    862   1768     1  0.0000000  1.0460000  1
    858    856    862   1768     1  0.0000000  0.0000000  3
    858    856    862    863     1  0.0000000  0.6508444  3
    858    856    862    864     1  0.0000000  0.6508444  3
    862   1768   1759   1760     1  0.0000000  1.6038667  3
    862   1768   1759   1761     1  0.0000000  1.6038667  3
    863    862   1768   1759     1  0.0000000  1.6038667  3
    864    862   1768   1759     1  0.0000000  1.6038667  3
    865   1798   1789   1790     1  0.0000000  1.6038667  3
    865   1798   1789   1791     1  0.0000000  1.6038667  3
    866    865   1798   1789     1  0.0000000  1.6038667  3
    867    865   1798   1789     1  0.0000000  1.6038667  3
    870    871    883    884     1  0.0000000  0.6508444  3
    870    871    883    885     1  0.0000000  0.6508444  3
    870    874    886    887     1  0.0000000  0.6508444  3
    870    874    886    888     1  0.0000000  0.6508444  3
    870    877    880    881     1  0.0000000  0.6508444  3
    870    877    880    882     1  0.0000000  0.6508444  3
    871    870    874    875     1  0.0000000  0.6508444  3
    871    870    874    876     1  0.0000000  0.6508444  3
    871    870    877    878     1  0.0000000  0.6508444  3
    871    870    877    879     1  0.0000000  0.6508444  3
    871    883    895    896     1  0.0000000  0.6508444  3
    871    883    895    897     1  0.0000000  0.6508444  3
    872    871    870    874     1  0.0000000  0.6508444  3
    872    871    870    877     1  0.0000000  0.6508444  3
    872    871    870    899     1  0.0000000  0.6508444  3
    872    871    883    895     1  0.0000000  0.6508444  3
    872    871    883    884     1  0.0000000  0.6508444  3
    872    871    883    885     1  0.0000000  0.6508444  3
    873    871    870    874     1  0.0000000  0.6508444  3
    873    871    870    877     1  0.0000000  0.6508444  3
    873    871    870    899     1  0.0000000  0.6508444  3
    873    871    883    895     1  0.0000000  0.6508444  3
    873    871    883    884     1  0.0000000  0.6508444  3
    873    871    883    885     1  0.0000000  0.6508444  3
    874    870    877    878     1  0.0000000  0.6508444  3
    874    870    877    879     1  0.0000000  0.6508444  3
    874    886    892    893     1  0.0000000  0.6508444  3
    874    886    892    894     1  0.0000000  0.6508444  3
    875    874    870    877     1  0.0000000  0.6508444  3
    875    874    870    899     1  0.0000000  0.6508444  3
    875    874    886    892     1  0.0000000  0.6508444  3
    875    874    886    887     1  0.0000000  0.6508444  3
    875    874    886    888     1  0.0000000  0.6508444  3
    876    874    870    877     1  0.0000000  0.6508444  3
    876    874    870    899     1  0.0000000  0.6508444  3
    876    874    886    892     1  0.0000000  0.6508444  3
    876    874    886    887     1  0.0000000  0.6508444  3
    876    874    886    888     1  0.0000000  0.6508444  3
    877    880    889    890     1  0.0000000  0.6508444  3
    877    880    889    891     1  0.0000000  0.6508444  3
    878    877    870    899     1  0.0000000  0.6508444  3
    878    877    880    889     1  0.0000000  0.6508444  3
    878    877    880    881     1  0.0000000  0.6508444  3
    878    877    880    882     1  0.0000000  0.6508444  3
    879    877    870    899     1  0.0000000  0.6508444  3
    879    877    880    889     1  0.0000000  0.6508444  3
    879    877    880    881     1  0.0000000  0.6508444  3
    879    877    880    882     1  0.0000000  0.6508444  3
    880    877    870    899     1  0.0000000  0.6508444  3
    881    880    889    898     1  0.0000000  1.0460000  1
    881    880    889    898     1  0.0000000  0.0000000  3
    881    880    889    890     1  0.0000000  0.6508444  3
    881    880    889    891     1  0.0000000  0.6508444  3
    882    880    889    898     1  0.0000000  1.0460000  1
    882    880    889    898     1  0.0000000  0.0000000  3
    882    880    889    890     1  0.0000000  0.6508444  3
    882    880    889    891     1  0.0000000  0.6508444  3
    883    871    870    899     1  0.0000000  0.6508444  3
    884    883    895   1858     1  0.0000000  1.0460000  1
    884    883    895   1858     1  0.0000000  0.0000000  3
    884    883    895    896     1  0.0000000  0.6508444  3
    884    883    895    897     1  0.0000000  0.6508444  3
    885    883    895   1858     1  0.0000000  1.0460000  1
    885    883    895   1858     1  0.0000000  0.0000000  3
    885    883    895    896     1  0.0000000  0.6508444  3
    885    883    895    897     1  0.0000000  0.6508444  3
    886    874    870    899     1  0.0000000  0.6508444  3
    887    886    892   1828     1  0.0000000  1.0460000  1
    887    886    892   1828     1  0.0000000  0.0000000  3
    887    886    892    893     1  0.0000000  0.6508444  3
    887    886    892    894     1  0.0000000  0.6508444  3
    888    886    892   1828     1  0.0000000  1.0460000  1
    888    886    892   1828     1  0.0000000  0.0000000  3
    888    886    892    893     1  0.0000000  0.6508444  3
    888    886    892    894     1  0.0000000  0.6508444  3
    892   1828   1819   1820     1  0.0000000  1.6038667  3
    892   1828   1819   1821     1  0.0000000  1.6038667  3
    893    892   1828   1819     1  0.0000000  1.6038667  3
    894    892   1828   1819     1  0.0000000  1.6038667  3
    895   1858   1849   1850     1  0.0000000  1.6038667  3
    895   1858   1849   1851     1  0.0000000  1.6038667  3
    896    895   1858   1849     1  0.0000000  1.6038667  3
    897    895   1858   1849     1  0.0000000  1.6038667  3
    900    901    913    914     1  0.0000000  0.6508444  3
    900    901    913    915     1  0.0000000  0.6508444  3
    900    904    916    917     1  0.0000000  0.6508444  3
    900    904    916    918     1  0.0000000  0.6508444  3
    900    907    910    911     1  0.0000000  0.6508444  3
    900    907    910    912     1  0.0000000  0.6508444  3
    901    900    904    905     1  0.0000000  0.6508444  3
    901    900    904    906     1  0.0000000  0.6508444  3
    901    900    907    908     1  0.0000000  0.6508444  3
    901    900    907    909     1  0.0000000  0.6508444  3
    901    913    925    926     1  0.0000000  0.6508444  3
    901    913    925    927     1  0.0000000  0.6508444  3
    902    901    900    904     1  0.0000000  0.6508444  3
    902    901    900    907     1  0.0000000  0.6508444  3
    902    901    900    929     1  0.0000000  0.6508444  3
    902    901    913    925     1  0.0000000  0.6508444  3
    902    901    913    914     1  0.0000000  0.6508444  3
    902    901    913    915     1  0.0000000  0.6508444  3
    903    901    900    904     1  0.0000000  0.6508444  3
    903    901    900    907     1  0.0000000  0.6508444  3
    903    901    900    929     1  0.0000000  0.6508444  3
    903    901    913    925     1  0.0000000  0.6508444  3
    903    901    913    914     1  0.0000000  0.6508444  3
    903    901    913    915     1  0.0000000  0.6508444  3
    904    900    907    908     1  0.0000000  0.6508444  3
    904    900    907    909     1  0.0000000  0.6508444  3
    904    916    922    923     1  0.0000000  0.6508444  3
    904    916    922    924     1  0.0000000  0.6508444  3
    905    904    900    907     1  0.0000000  0.6508444  3
    905    904    900    929     1  0.0000000  0.6508444  3
    905    904    916    922     1  0.0000000  0.6508444  3
    905    904    916    917     1  0.0000000  0.6508444  3
    905    904    916    918     1  0.0000000  0.6508444  3
    906    904    900    907     1  0.0000000  0.6508444  3
    906    904    900    929     1  0.0000000  0.6508444  3
    906    904    916    922     1  0.0000000  0.6508444  3
    906    904    916    917     1  0.0000000  0.6508444  3
    906    904    916    918     1  0.0000000  0.6508444  3
    907    910    919    920     1  0.0000000  0.6508444  3
    907    910    919    921     1  0.0000000  0.6508444  3
    908    907    900    929     1  0.0000000  0.6508444  3
    908    907    910    919     1  0.0000000  0.6508444  3
    908    907    910    911     1  0.0000000  0.6508444  3
    908    907    910    912     1  0.0000000  0.6508444  3
    909    907    900    929     1  0.0000000  0.6508444  3
    909    907    910    919     1  0.0000000  0.6508444  3
    909    907    910    911     1  0.0000000  0.6508444  3
    909    907    910    912     1  0.0000000  0.6508444  3
    910    907    900    929     1  0.0000000  0.6508444  3
    911    910    919    928     1  0.0000000  1.0460000  1
    911    910    919    928     1  0.0000000  0.0000000  3
    911    910    919    920     1  0.0000000  0.6508444  3
    911    910    919    921     1  0.0000000  0.6508444  3
    912    910    919    928     1  0.0000000  1.0460000  1
    912    910    919    928     1  0.0000000  0.0000000  3
    912    910    919    920     1  0.0000000  0.6508444  3
    912    910    919    921     1  0.0000000  0.6508444  3
    913    901    900    929     1  0.0000000  0.6508444  3
    914    913    925   1918     1  0.0000000  1.0460000  1
    914    913    925   1918     1  0.0000000  0.0000000  3
    914    913    925    926     1  0.0000000  0.6508444  3
    914    913    925    927     1  0.0000000  0.6508444  3
    915    913    925   1918     1  0.0000000  1.0460000  1
    915    913    925   1918     1  0.0000000  0.0000000  3
    915    913    925    926     1  0.0000000  0.6508444  3
    915    913    925    927     1  0.0000000  0.6508444  3
    916    904    900    929     1  0.0000000  0.6508444  3
    917    916    922   1888     1  0.0000000  1.0460000  1
    917    916    922   1888     1  0.0000000  0.0000000  3
    917    916    922    923     1  0.0000000  0.6508444  3
    917    916    922    924     1  0.0000000  0.6508444  3
    918    916    922   1888     1  0.0000000  1.0460000  1
    918    916    922   1888     1  0.0000000  0.0000000  3
    918    916    922    923     1  0.0000000  0.6508444  3
    918    916    922    924     1  0.0000000  0.6508444  3
    922   1888   1879   1880     1  0.0000000  1.6038667  3
    922   1888   1879   1881     1  0.0000000  1.6038667  3
    923    922   1888   1879     1  0.0000000  1.6038667  3
    924    922   1888   1879     1  0.0000000  1.6038667  3
    925   1918   1909   1910     1  0.0000000  1.6038667  3
    925   1918   1909   1911     1  0.0000000  1.6038667  3
    926    925   1918   1909     1  0.0000000  1.6038667  3
    927    925   1918   1909     1  0.0000000  1.6038667  3
    930    931    943    944     1  0.0000000  0.6508444  3
    930    931    943    945     1  0.0000000  0.6508444  3
    930    934    946    947     1  0.0000000  0.6508444  3
    930    934    946    948     1  0.0000000  0.6508444  3
    930    937    940    941     1  0.0000000  0.6508444  3
    930    937    940    942     1  0.0000000  0.6508444  3
    931    930    934    935     1  0.0000000  0.6508444  3
    931    930    934    936     1  0.0000000  0.6508444  3
    931    930    937    938     1  0.0000000  0.6508444  3
    931    930    937    939     1  0.0000000  0.6508444  3
    931    943    955    956     1  0.0000000  0.6508444  3
    931    943    955    957     1  0.0000000  0.6508444  3
    932    931    930    934     1  0.0000000  0.6508444  3
    932    931    930    937     1  0.0000000  0.6508444  3
    932    931    930    959     1  0.0000000  0.6508444  3
    932    931    943    955     1  0.0000000  0.6508444  3
    932    931    943    944     1  0.0000000  0.6508444  3
    932    931    943    945     1  0.0000000  0.6508444  3
    933    931    930    934     1  0.0000000  0.6508444  3
    933    931    930    937     1  0.0000000  0.6508444  3
    933    931    930    959     1  0.0000000  0.6508444  3
    933    931    943    955     1  0.0000000  0.6508444  3
    933    931    943    944     1  0.0000000  0.6508444  3
    933    931    943    945     1  0.0000000  0.6508444  3
    934    930    937    938     1  0.0000000  0.6508444  3
    934    930    937    939     1  0.0000000  0.6508444  3
    934    946    952    953     1  0.0000000  0.6508444  3
    934    946    952    954     1  0.0000000  0.6508444  3
    935    934    930    937     1  0.0000000  0.6508444  3
    935    934    930    959     1  0.0000000  0.6508444  3
    935    934    946    952     1  0.0000000  0.6508444  3
    935    934    946    947     1  0.0000000  0.6508444  3
    935    934    946    948     1  0.0000000  0.6508444  3
    936    934    930    937     1  0.0000000  0.6508444  3
    936    934    930    959     1  0.0000000  0.6508444  3
    936    934    946    952     1  0.0000000  0.6508444  3
    936    934    946    947     1  0.0000000  0.6508444  3
    936    934    946    948     1  0.0000000  0.6508444  3
    937    940    949    950     1  0.0000000  0.6508444  3
    937    940    949    951     1  0.0000000  0.6508444  3
    938    937    930    959     1  0.0000000  0.6508444  3
    938    937    940    949     1  0.0000000  0.6508444  3
    938    937    940    941     1  0.0000000  0.6508444  3
    938    937    940    942     1  0.0000000  0.6508444  3
    939    937    930    959     1  0.0000000  0.6508444  3
    939    937    940    949     1  0.0000000  0.6508444  3
    939    937    940    941     1  0.0000000  0.6508444  3
    939    937    940    942     1  0.0000000  0.6508444  3
    940    937    930    959     1  0.0000000  0.6508444  3
    941    940    949    958     1  0.0000000  1.0460000  1
    941    940    949    958     1  0.0000000  0.0000000  3
    941    940    949    950     1  0.0000000  0.6508444  3
    941    940    949    951     1  0.0000000  0.6508444  3
    942    940    949    958     1  0.0000000  1.0460000  1
    942    940    949    958     1  0.0000000  0.0000000  3
    942    940    949    950     1  0.0000000  0.6508444  3
    942    940    949    951     1  0.0000000  0.6508444  3
    943    931    930    959     1  0.0000000  0.6508444  3
    944    943    955   1978     1  0.0000000  1.0460000  1
    944    943    955   1978     1  0.0000000  0.0000000  3
    944    943    955    956     1  0.0000000  0.6508444  3
    944    943    955    957     1  0.0000000  0.6508444  3
    945    943    955   1978     1  0.0000000  1.0460000  1
    945    943    955   1978     1  0.0000000  0.0000000  3
    945    943    955    956     1  0.0000000  0.6508444  3
    945    943    955    957     1  0.0000000  0.6508444  3
    946    934    930    959     1  0.0000000  0.6508444  3
    947    946    952   1948     1  0.0000000  1.0460000  1
    947    946    952   1948     1  0.0000000  0.0000000  3
    947    946    952    953     1  0.0000000  0.6508444  3
    947    946    952    954     1  0.0000000  0.6508444  3
    948    946    952   1948     1  0.0000000  1.0460000  1
    948    946    952   1948     1  0.0000000  0.0000000  3
    948    946    952    953     1  0.0000000  0.6508444  3
    948    946    952    954     1  0.0000000  0.6508444  3
    952   1948   1939   1940     1  0.0000000  1.6038667  3
    952   1948   1939   1941     1  0.0000000  1.6038667  3
    953    952   1948   1939     1  0.0000000  1.6038667  3
    954    952   1948   1939     1  0.0000000  1.6038667  3
    955   1978   1969   1970     1  0.0000000  1.6038667  3
    955   1978   1969   1971     1  0.0000000  1.6038667  3
    956    955   1978   1969     1  0.0000000  1.6038667  3
    957    955   1978   1969     1  0.0000000  1.6038667  3
    960    961    973    974     1  0.0000000  0.6508444  3
    960    961    973    975     1  0.0000000  0.6508444  3
    960    964    976    977     1  0.0000000  0.6508444  3
    960    964    976    978     1  0.0000000  0.6508444  3
    960    967    970    971     1  0.0000000  0.6508444  3
    960    967    970    972     1  0.0000000  0.6508444  3
    961    960    964    965     1  0.0000000  0.6508444  3
    961    960    964    966     1  0.0000000  0.6508444  3
    961    960    967    968     1  0.0000000  0.6508444  3
    961    960    967    969     1  0.0000000  0.6508444  3
    961    973    985    986     1  0.0000000  0.6508444  3
    961    973    985    987     1  0.0000000  0.6508444  3
    962    961    960    964     1  0.0000000  0.6508444  3
    962    961    960    967     1  0.0000000  0.6508444  3
    962    961    960    989     1  0.0000000  0.6508444  3
    962    961    973    985     1  0.0000000  0.6508444  3
    962    961    973    974     1  0.0000000  0.6508444  3
    962    961    973    975     1  0.0000000  0.6508444  3
    963    961    960    964     1  0.0000000  0.6508444  3
    963    961    960    967     1  0.0000000  0.6508444  3
    963    961    960    989     1  0.0000000  0.6508444  3
    963    961    973    985     1  0.0000000  0.6508444  3
    963    961    973    974     1  0.0000000  0.6508444  3
    963    961    973    975     1  0.0000000  0.6508444  3
    964    960    967    968     1  0.0000000  0.6508444  3
    964    960    967    969     1  0.0000000  0.6508444  3
    964    976    982    983     1  0.0000000  0.6508444  3
    964    976    982    984     1  0.0000000  0.6508444  3
    965    964    960    967     1  0.0000000  0.6508444  3
    965    964    960    989     1  0.0000000  0.6508444  3
    965    964    976    982     1  0.0000000  0.6508444  3
    965    964    976    977     1  0.0000000  0.6508444  3
    965    964    976    978     1  0.0000000  0.6508444  3
    966    964    960    967     1  0.0000000  0.6508444  3
    966    964    960    989     1  0.0000000  0.6508444  3
    966    964    976    982     1  0.0000000  0.6508444  3
    966    964    976    977     1  0.0000000  0.6508444  3
    966    964    976    978     1  0.0000000  0.6508444  3
    967    970    979    980     1  0.0000000  0.6508444  3
    967    970    979    981     1  0.0000000  0.6508444  3
    968    967    960    989     1  0.0000000  0.6508444  3
    968    967    970    979     1  0.0000000  0.6508444  3
    968    967    970    971     1  0.0000000  0.6508444  3
    968    967    970    972     1  0.0000000  0.6508444  3
    969    967    960    989     1  0.0000000  0.6508444  3
    969    967    970    979     1  0.0000000  0.6508444  3
    969    967    970    971     1  0.0000000  0.6508444  3
    969    967    970    972     1  0.0000000  0.6508444  3
    970    967    960    989     1  0.0000000  0.6508444  3
    971    970    979    988     1  0.0000000  1.0460000  1
    971    970    979    988     1  0.0000000  0.0000000  3
    971    970    979    980     1  0.0000000  0.6508444  3
    971    970    979    981     1  0.0000000  0.6508444  3
    972    970    979    988     1  0.0000000  1.0460000  1
    972    970    979    988     1  0.0000000  0.0000000  3
    972    970    979    980     1  0.0000000  0.6508444  3
    972    970    979    981     1  0.0000000  0.6508444  3
    973    961    960    989     1  0.0000000  0.6508444  3
    974    973    985   2038     1  0.0000000  1.0460000  1
    974    973    985   2038     1  0.0000000  0.0000000  3
    974    973    985    986     1  0.0000000  0.6508444  3
    974    973    985    987     1  0.0000000  0.6508444  3
    975    973    985   2038     1  0.0000000  1.0460000  1
    975    973    985   2038     1  0.0000000  0.0000000  3
    975    973    985    986     1  0.0000000  0.6508444  3
    975    973    985    987     1  0.0000000  0.6508444  3
    976    964    960    989     1  0.0000000  0.6508444  3
    977    976    982   2008     1  0.0000000  1.0460000  1
    977    976    982   2008     1  0.0000000  0.0000000  3
    977    976    982    983     1  0.0000000  0.6508444  3
    977    976    982    984     1  0.0000000  0.6508444  3
    978    976    982   2008     1  0.0000000  1.0460000  1
    978    976    982   2008     1  0.0000000  0.0000000  3
    978    976    982    983     1  0.0000000  0.6508444  3
    978    976    982    984     1  0.0000000  0.6508444  3
    982   2008   1999   2000     1  0.0000000  1.6038667  3
    982   2008   1999   2001     1  0.0000000  1.6038667  3
    983    982   2008   1999     1  0.0000000  1.6038667  3
    984    982   2008   1999     1  0.0000000  1.6038667  3
    985   2038   2029   2030     1  0.0000000  1.6038667  3
    985   2038   2029   2031     1  0.0000000  1.6038667  3
    986    985   2038   2029     1  0.0000000  1.6038667  3
    987    985   2038   2029     1  0.0000000  1.6038667  3
    990    991   1003   1004     1  0.0000000  0.6508444  3
    990    991   1003   1005     1  0.0000000  0.6508444  3
    990    994   1006   1007     1  0.0000000  0.6508444  3
    990    994   1006   1008     1  0.0000000  0.6508444  3
    990    997   1000   1001     1  0.0000000  0.6508444  3
    990    997   1000   1002     1  0.0000000  0.6508444  3
    991    990    994    995     1  0.0000000  0.6508444  3
    991    990    994    996     1  0.0000000  0.6508444  3
    991    990    997    998     1  0.0000000  0.6508444  3
    991    990    997    999     1  0.0000000  0.6508444  3
    991   1003   1015   1016     1  0.0000000  0.6508444  3
    991   1003   1015   1017     1  0.0000000  0.6508444  3
    992    991    990    994     1  0.0000000  0.6508444  3
    992    991    990    997     1  0.0000000  0.6508444  3
    992    991    990   1019     1  0.0000000  0.6508444  3
    992    991   1003   1015     1  0.0000000  0.6508444  3
    992    991   1003   1004     1  0.0000000  0.6508444  3
    992    991   1003   1005     1  0.0000000  0.6508444  3
    993    991    990    994     1  0.0000000  0.6508444  3
    993    991    990    997     1  0.0000000  0.6508444  3
    993    991    990   1019     1  0.0000000  0.6508444  3
    993    991   1003   1015     1  0.0000000  0.6508444  3
    993    991   1003   1004     1  0.0000000  0.6508444  3
    993    991   1003   1005     1  0.0000000  0.6508444  3
    994    990    997    998     1  0.0000000  0.6508444  3
    994    990    997    999     1  0.0000000  0.6508444  3
    994   1006   1012   1013     1  0.0000000  0.6508444  3
    994   1006   1012   1014     1  0.0000000  0.6508444  3
    995    994    990    997     1  0.0000000  0.6508444  3
    995    994    990   1019     1  0.0000000  0.6508444  3
    995    994   1006   1012     1  0.0000000  0.6508444  3
    995    994   1006   1007     1  0.0000000  0.6508444  3
    995    994   1006   1008     1  0.0000000  0.6508444  3
    996    994    990    997     1  0.0000000  0.6508444  3
    996    994    990   1019     1  0.0000000  0.6508444  3
    996    994   1006   1012     1  0.0000000  0.6508444  3
    996    994   1006   1007     1  0.0000000  0.6508444  3
    996    994   1006   1008     1  0.0000000  0.6508444  3
    997   1000   1009   1010     1  0.0000000  0.6508444  3
    997   1000   1009   1011     1  0.0000000  0.6508444  3
    998    997    990   1019     1  0.0000000  0.6508444  3
    998    997   1000   1009     1  0.0000000  0.6508444  3
    998    997   1000   1001     1  0.0000000  0.6508444  3
    998    997   1000   1002     1  0.0000000  0.6508444  3
    999    997    990   1019     1  0.0000000  0.6508444  3
    999    997   1000   1009     1  0.0000000  0.6508444  3
    999    997   1000   1001     1  0.0000000  0.6508444  3
    999    997   1000   1002     1  0.0000000  0.6508444  3
   1000    997    990   1019     1  0.0000000  0.6508444  3
   1001   1000   1009   1018     1  0.0000000  1.0460000  1
   1001   1000   1009   1018     1  0.0000000  0.0000000  3
   1001   1000   1009   1010     1  0.0000000  0.6508444  3
   1001   1000   1009   1011     1  0.0000000  0.6508444  3
   1002   1000   1009   1018     1  0.0000000  1.0460000  1
   1002   1000   1009   1018     1  0.0000000  0.0000000  3
   1002   1000   1009   1010     1  0.0000000  0.6508444  3
   1002   1000   1009   1011     1  0.0000000  0.6508444  3
   1003    991    990   1019     1  0.0000000  0.6508444  3
   1004   1003   1015   2098     1  0.0000000  1.0460000  1
   1004   1003   1015   2098     1  0.0000000  0.0000000  3
   1004   1003   1015   1016     1  0.0000000  0.6508444  3
   1004   1003   1015   1017     1  0.0000000  0.6508444  3
   1005   1003   1015   2098     1  0.0000000  1.0460000  1
   1005   1003   1015   2098     1  0.0000000  0.0000000  3
   1005   1003   1015   1016     1  0.0000000  0.6508444  3
   1005   1003   1015   1017     1  0.0000000  0.6508444  3
   1006    994    990   1019     1  0.0000000  0.6508444  3
   1007   1006   1012   2068     1  0.0000000  1.0460000  1
   1007   1006   1012   2068     1  0.0000000  0.0000000  3
   1007   1006   1012   1013     1  0.0000000  0.6508444  3
   1007   1006   1012   1014     1  0.0000000  0.6508444  3
   1008   1006   1012   2068     1  0.0000000  1.0460000  1
   1008   1006   1012   2068     1  0.0000000  0.0000000  3
   1008   1006   1012   1013     1  0.0000000  0.6508444  3
   1008   1006   1012   1014     1  0.0000000  0.6508444  3
   1012   2068   2059   2060     1  0.0000000  1.6038667  3
   1012   2068   2059   2061     1  0.0000000  1.6038667  3
   1013   1012   2068   2059     1  0.0000000  1.6038667  3
   1014   1012   2068   2059     1  0.0000000  1.6038667  3
   1015   2098   2089   2090     1  0.0000000  1.6038667  3
   1015   2098   2089   2091     1  0.0000000  1.6038667  3
   1016   1015   2098   2089     1  0.0000000  1.6038667  3
   1017   1015   2098   2089     1  0.0000000  1.6038667  3
   1020   1021   1033   1034     1  0.0000000  0.6508444  3
   1020   1021   1033   1035     1  0.0000000  0.6508444  3
   1020   1024   1036   1037     1  0.0000000  0.6508444  3
   1020   1024   1036   1038     1  0.0000000  0.6508444  3
   1020   1027   1030   1031     1  0.0000000  0.6508444  3
   1020   1027   1030   1032     1  0.0000000  0.6508444  3
   1021   1020   1024   1025     1  0.0000000  0.6508444  3
   1021   1020   1024   1026     1  0.0000000  0.6508444  3
   1021   1020   1027   1028     1  0.0000000  0.6508444  3
   1021   1020   1027   1029     1  0.0000000  0.6508444  3
   1021   1033   1045   1046     1  0.0000000  0.6508444  3
   1021   1033   1045   1047     1  0.0000000  0.6508444  3
   1022   1021   1020   1024     1  0.0000000  0.6508444  3
   1022   1021   1020   1027     1  0.0000000  0.6508444  3
   1022   1021   1020   1049     1  0.0000000  0.6508444  3
   1022   1021   1033   1045     1  0.0000000  0.6508444  3
   1022   1021   1033   1034     1  0.0000000  0.6508444  3
   1022   1021   1033   1035     1  0.0000000  0.6508444  3
   1023   1021   1020   1024     1  0.0000000  0.6508444  3
   1023   1021   1020   1027     1  0.0000000  0.6508444  3
   1023   1021   1020   1049     1  0.0000000  0.6508444  3
   1023   1021   1033   1045     1  0.0000000  0.6508444  3
   1023   1021   1033   1034     1  0.0000000  0.6508444  3
   1023   1021   1033   1035     1  0.0000000  0.6508444  3
   1024   1020   1027   1028     1  0.0000000  0.6508444  3
   1024   1020   1027   1029     1  0.0000000  0.6508444  3
   1024   1036   1042   1043     1  0.0000000  0.6508444  3
   1024   1036   1042   1044     1  0.0000000  0.6508444  3
   1025   1024   1020   1027     1  0.0000000  0.6508444  3
   1025   1024   1020   1049     1  0.0000000  0.6508444  3
   1025   1024   1036   1042     1  0.0000000  0.6508444  3
   1025   1024   1036   1037     1  0.0000000  0.6508444  3
   1025   1024   1036   1038     1  0.0000000  0.6508444  3
   1026   1024   1020   1027     1  0.0000000  0.6508444  3
   1026   1024   1020   1049     1  0.0000000  0.6508444  3
   1026   1024   1036   1042     1  0.0000000  0.6508444  3
   1026   1024   1036   1037     1  0.0000000  0.6508444  3
   1026   1024   1036   1038     1  0.0000000  0.6508444  3
   1027   1030   1039   1040     1  0.0000000  0.6508444  3
   1027   1030   1039   1041     1  0.0000000  0.6508444  3
   1028   1027   1020   1049     1  0.0000000  0.6508444  3
   1028   1027   1030   1039     1  0.0000000  0.6508444  3
   1028   1027   1030   1031     1  0.0000000  0.6508444  3
   1028   1027   1030   1032     1  0.0000000  0.6508444  3
   1029   1027   1020   1049     1  0.0000000  0.6508444  3
   1029   1027   1030   1039     1  0.0000000  0.6508444  3
   1029   1027   1030   1031     1  0.0000000  0.6508444  3
   1029   1027   1030   1032     1  0.0000000  0.6508444  3
   1030   1027   1020   1049     1  0.0000000  0.6508444  3
   1031   1030   1039   1048     1  0.0000000  1.0460000  1
   1031   1030   1039   1048     1  0.0000000  0.0000000  3
   1031   1030   1039   1040     1  0.0000000  0.6508444  3
   1031   1030   1039   1041     1  0.0000000  0.6508444  3
   1032   1030   1039   1048     1  0.0000000  1.0460000  1
   1032   1030   1039   1048     1  0.0000000  0.0000000  3
   1032   1030   1039   1040     1  0.0000000  0.6508444  3
   1032   1030   1039   1041     1  0.0000000  0.6508444  3
   1033   1021   1020   1049     1  0.0000000  0.6508444  3
   1034   1033   1045   2158     1  0.0000000  1.0460000  1
   1034   1033   1045   2158     1  0.0000000  0.0000000  3
   1034   1033   1045   1046     1  0.0000000  0.6508444  3
   1034   1033   1045   1047     1  0.0000000  0.6508444  3
   1035   1033   1045   2158     1  0.0000000  1.0460000  1
   1035   1033   1045   2158     1  0.0000000  0.0000000  3
   1035   1033   1045   1046     1  0.0000000  0.6508444  3
   1035   1033   1045   1047     1  0.0000000  0.6508444  3
   1036   1024   1020   1049     1  0.0000000  0.6508444  3
   1037   1036   1042   2128     1  0.0000000  1.0460000  1
   1037   1036   1042   2128     1  0.0000000  0.0000000  3
   1037   1036   1042   1043     1  0.0000000  0.6508444  3
   1037   1036   1042   1044     1  0.0000000  0.6508444  3
   1038   1036   1042   2128     1  0.0000000  1.0460000  1
   1038   1036   1042   2128     1  0.0000000  0.0000000  3
   1038   1036   1042   1043     1  0.0000000  0.6508444  3
   1038   1036   1042   1044     1  0.0000000  0.6508444  3
   1042   2128   2119   2120     1  0.0000000  1.6038667  3
   1042   2128   2119   2121     1  0.0000000  1.6038667  3
   1043   1042   2128   2119     1  0.0000000  1.6038667  3
   1044   1042   2128   2119     1  0.0000000  1.6038667  3
   1045   2158   2149   2150     1  0.0000000  1.6038667  3
   1045   2158   2149   2151     1  0.0000000  1.6038667  3
   1046   1045   2158   2149     1  0.0000000  1.6038667  3
   1047   1045   2158   2149     1  0.0000000  1.6038667  3
   1050   1051   1063   1064     1  0.0000000  0.6508444  3
   1050   1051   1063   1065     1  0.0000000  0.6508444  3
   1050   1054   1066   1067     1  0.0000000  0.6508444  3
   1050   1054   1066   1068     1  0.0000000  0.6508444  3
   1050   1057   1060   1061     1  0.0000000  0.6508444  3
   1050   1057   1060   1062     1  0.0000000  0.6508444  3
   1051   1050   1054   1055     1  0.0000000  0.6508444  3
   1051   1050   1054   1056     1  0.0000000  0.6508444  3
   1051   1050   1057   1058     1  0.0000000  0.6508444  3
   1051   1050   1057   1059     1  0.0000000  0.6508444  3
   1051   1063   1075   1076     1  0.0000000  0.6508444  3
   1051   1063   1075   1077     1  0.0000000  0.6508444  3
   1052   1051   1050   1054     1  0.0000000  0.6508444  3
   1052   1051   1050   1057     1  0.0000000  0.6508444  3
   1052   1051   1050   1079     1  0.0000000  0.6508444  3
   1052   1051   1063   1075     1  0.0000000  0.6508444  3
   1052   1051   1063   1064     1  0.0000000  0.6508444  3
   1052   1051   1063   1065     1  0.0000000  0.6508444  3
   1053   1051   1050   1054     1  0.0000000  0.6508444  3
   1053   1051   1050   1057     1  0.0000000  0.6508444  3
   1053   1051   1050   1079     1  0.0000000  0.6508444  3
   1053   1051   1063   1075     1  0.0000000  0.6508444  3
   1053   1051   1063   1064     1  0.0000000  0.6508444  3
   1053   1051   1063   1065     1  0.0000000  0.6508444  3
   1054   1050   1057   1058     1  0.0000000  0.6508444  3
   1054   1050   1057   1059     1  0.0000000  0.6508444  3
   1054   1066   1072   1073     1  0.0000000  0.6508444  3
   1054   1066   1072   1074     1  0.0000000  0.6508444  3
   1055   1054   1050   1057     1  0.0000000  0.6508444  3
   1055   1054   1050   1079     1  0.0000000  0.6508444  3
   1055   1054   1066   1072     1  0.0000000  0.6508444  3
   1055   1054   1066   1067     1  0.0000000  0.6508444  3
   1055   1054   1066   1068     1  0.0000000  0.6508444  3
   1056   1054   1050   1057     1  0.0000000  0.6508444  3
   1056   1054   1050   1079     1  0.0000000  0.6508444  3
   1056   1054   1066   1072     1  0.0000000  0.6508444  3
   1056   1054   1066   1067     1  0.0000000  0.6508444  3
   1056   1054   1066   1068     1  0.0000000  0.6508444  3
   1057   1060   1069   1070     1  0.0000000  0.6508444  3
   1057   1060   1069   1071     1  0.0000000  0.6508444  3
   1058   1057   1050   1079     1  0.0000000  0.6508444  3
   1058   1057   1060   1069     1  0.0000000  0.6508444  3
   1058   1057   1060   1061     1  0.0000000  0.6508444  3
   1058   1057   1060   1062     1  0.0000000  0.6508444  3
   1059   1057   1050   1079     1  0.0000000  0.6508444  3
   1059   1057   1060   1069     1  0.0000000  0.6508444  3
   1059   1057   1060   1061     1  0.0000000  0.6508444  3
   1059   1057   1060   1062     1  0.0000000  0.6508444  3
   1060   1057   1050   1079     1  0.0000000  0.6508444  3
   1061   1060   1069   1078     1  0.0000000  1.0460000  1
   1061   1060   1069   1078     1  0.0000000  0.0000000  3
   1061   1060   1069   1070     1  0.0000000  0.6508444  3
   1061   1060   1069   1071     1  0.0000000  0.6508444  3
   1062   1060   1069   1078     1  0.0000000  1.0460000  1
   1062   1060   1069   1078     1  0.0000000  0.0000000  3
   1062   1060   1069   1070     1  0.0000000  0.6508444  3
   1062   1060   1069   1071     1  0.0000000  0.6508444  3
   1063   1051   1050   1079     1  0.0000000  0.6508444  3
   1064   1063   1075   2218     1  0.0000000  1.0460000  1
   1064   1063   1075   2218     1  0.0000000  0.0000000  3
   1064   1063   1075   1076     1  0.0000000  0.6508444  3
   1064   1063   1075   1077     1  0.0000000  0.6508444  3
   1065   1063   1075   2218     1  0.0000000  1.0460000  1
   1065   1063   1075   2218     1  0.0000000  0.0000000  3
   1065   1063   1075   1076     1  0.0000000  0.6508444  3
   1065   1063   1075   1077     1  0.0000000  0.6508444  3
   1066   1054   1050   1079     1  0.0000000  0.6508444  3
   1067   1066   1072   2188     1  0.0000000  1.0460000  1
   1067   1066   1072   2188     1  0.0000000  0.0000000  3
   1067   1066   1072   1073     1  0.0000000  0.6508444  3
   1067   1066   1072   1074     1  0.0000000  0.6508444  3
   1068   1066   1072   2188     1  0.0000000  1.0460000  1
   1068   1066   1072   2188     1  0.0000000  0.0000000  3
   1068   1066   1072   1073     1  0.0000000  0.6508444  3
   1068   1066   1072   1074     1  0.0000000  0.6508444  3
   1072   2188   2179   2180     1  0.0000000  1.6038667  3
   1072   2188   2179   2181     1  0.0000000  1.6038667  3
   1073   1072   2188   2179     1  0.0000000  1.6038667  3
   1074   1072   2188   2179     1  0.0000000  1.6038667  3
   1075   2218   2209   2210     1  0.0000000  1.6038667  3
   1075   2218   2209   2211     1  0.0000000  1.6038667  3
   1076   1075   2218   2209     1  0.0000000  1.6038667  3
   1077   1075   2218   2209     1  0.0000000  1.6038667  3
   1080   1081   1093   1094     1  0.0000000  0.6508444  3
   1080   1081   1093   1095     1  0.0000000  0.6508444  3
   1080   1084   1096   1097     1  0.0000000  0.6508444  3
   1080   1084   1096   1098     1  0.0000000  0.6508444  3
   1080   1087   1090   1091     1  0.0000000  0.6508444  3
   1080   1087   1090   1092     1  0.0000000  0.6508444  3
   1081   1080   1084   1085     1  0.0000000  0.6508444  3
   1081   1080   1084   1086     1  0.0000000  0.6508444  3
   1081   1080   1087   1088     1  0.0000000  0.6508444  3
   1081   1080   1087   1089     1  0.0000000  0.6508444  3
   1081   1093   1105   1106     1  0.0000000  0.6508444  3
   1081   1093   1105   1107     1  0.0000000  0.6508444  3
   1082   1081   1080   1084     1  0.0000000  0.6508444  3
   1082   1081   1080   1087     1  0.0000000  0.6508444  3
   1082   1081   1080   1109     1  0.0000000  0.6508444  3
   1082   1081   1093   1105     1  0.0000000  0.6508444  3
   1082   1081   1093   1094     1  0.0000000  0.6508444  3
   1082   1081   1093   1095     1  0.0000000  0.6508444  3
   1083   1081   1080   1084     1  0.0000000  0.6508444  3
   1083   1081   1080   1087     1  0.0000000  0.6508444  3
   1083   1081   1080   1109     1  0.0000000  0.6508444  3
   1083   1081   1093   1105     1  0.0000000  0.6508444  3
   1083   1081   1093   1094     1  0.0000000  0.6508444  3
   1083   1081   1093   1095     1  0.0000000  0.6508444  3
   1084   1080   1087   1088     1  0.0000000  0.6508444  3
   1084   1080   1087   1089     1  0.0000000  0.6508444  3
   1084   1096   1102   1103     1  0.0000000  0.6508444  3
   1084   1096   1102   1104     1  0.0000000  0.6508444  3
   1085   1084   1080   1087     1  0.0000000  0.6508444  3
   1085   1084   1080   1109     1  0.0000000  0.6508444  3
   1085   1084   1096   1102     1  0.0000000  0.6508444  3
   1085   1084   1096   1097     1  0.0000000  0.6508444  3
   1085   1084   1096   1098     1  0.0000000  0.6508444  3
   1086   1084   1080   1087     1  0.0000000  0.6508444  3
   1086   1084   1080   1109     1  0.0000000  0.6508444  3
   1086   1084   1096   1102     1  0.0000000  0.6508444  3
   1086   1084   1096   1097     1  0.0000000  0.6508444  3
   1086   1084   1096   1098     1  0.0000000  0.6508444  3
   1087   1090   1099   1100     1  0.0000000  0.6508444  3
   1087   1090   1099   1101     1  0.0000000  0.6508444  3
   1088   1087   1080   1109     1  0.0000000  0.6508444  3
   1088   1087   1090   1099     1  0.0000000  0.6508444  3
   1088   1087   1090   1091     1  0.0000000  0.6508444  3
   1088   1087   1090   1092     1  0.0000000  0.6508444  3
   1089   1087   1080   1109     1  0.0000000  0.6508444  3
   1089   1087   1090   1099     1  0.0000000  0.6508444  3
   1089   1087   1090   1091     1  0.0000000  0.6508444  3
   1089   1087   1090   1092     1  0.0000000  0.6508444  3
   1090   1087   1080   1109     1  0.0000000  0.6508444  3
   1091   1090   1099   1108     1  0.0000000  1.0460000  1
   1091   1090   1099   1108     1  0.0000000  0.0000000  3
   1091   1090   1099   1100     1  0.0000000  0.6508444  3
   1091   1090   1099   1101     1  0.0000000  0.6508444  3
   1092   1090   1099   1108     1  0.0000000  1.0460000  1
   1092   1090   1099   1108     1  0.0000000  0.0000000  3
   1092   1090   1099   1100     1  0.0000000  0.6508444  3
   1092   1090   1099   1101     1  0.0000000  0.6508444  3
   1093   1081   1080   1109     1  0.0000000  0.6508444  3
   1094   1093   1105   2278     1  0.0000000  1.0460000  1
   1094   1093   1105   2278     1  0.0000000  0.0000000  3
   1094   1093   1105   1106     1  0.0000000  0.6508444  3
   1094   1093   1105   1107     1  0.0000000  0.6508444  3
   1095   1093   1105   2278     1  0.0000000  1.0460000  1
   1095   1093   1105   2278     1  0.0000000  0.0000000  3
   1095   1093   1105   1106     1  0.0000000  0.6508444  3
   1095   1093   1105   1107     1  0.0000000  0.6508444  3
   1096   1084   1080   1109     1  0.0000000  0.6508444  3
   1097   1096   1102   2248     1  0.0000000  1.0460000  1
   1097   1096   1102   2248     1  0.0000000  0.0000000  3
   1097   1096   1102   1103     1  0.0000000  0.6508444  3
   1097   1096   1102   1104     1  0.0000000  0.6508444  3
   1098   1096   1102   2248     1  0.0000000  1.0460000  1
   1098   1096   1102   2248     1  0.0000000  0.0000000  3
   1098   1096   1102   1103     1  0.0000000  0.6508444  3
   1098   1096   1102   1104     1  0.0000000  0.6508444  3
   1102   2248   2239   2240     1  0.0000000  1.6038667  3
   1102   2248   2239   2241     1  0.0000000  1.6038667  3
   1103   1102   2248   2239     1  0.0000000  1.6038667  3
   1104   1102   2248   2239     1  0.0000000  1.6038667  3
   1105   2278   2269   2270     1  0.0000000  1.6038667  3
   1105   2278   2269   2271     1  0.0000000  1.6038667  3
   1106   1105   2278   2269     1  0.0000000  1.6038667  3
   1107   1105   2278   2269     1  0.0000000  1.6038667  3
   1110   1111   1123   1124     1  0.0000000  0.6508444  3
   1110   1111   1123   1125     1  0.0000000  0.6508444  3
   1110   1114   1126   1127     1  0.0000000  0.6508444  3
   1110   1114   1126   1128     1  0.0000000  0.6508444  3
   1110   1117   1120   1121     1  0.0000000  0.6508444  3
   1110   1117   1120   1122     1  0.0000000  0.6508444  3
   1111   1110   1114   1115     1  0.0000000  0.6508444  3
   1111   1110   1114   1116     1  0.0000000  0.6508444  3
   1111   1110   1117   1118     1  0.0000000  0.6508444  3
   1111   1110   1117   1119     1  0.0000000  0.6508444  3
   1111   1123   1135   1136     1  0.0000000  0.6508444  3
   1111   1123   1135   1137     1  0.0000000  0.6508444  3
   1112   1111   1110   1114     1  0.0000000  0.6508444  3
   1112   1111   1110   1117     1  0.0000000  0.6508444  3
   1112   1111   1110   1139     1  0.0000000  0.6508444  3
   1112   1111   1123   1135     1  0.0000000  0.6508444  3
   1112   1111   1123   1124     1  0.0000000  0.6508444  3
   1112   1111   1123   1125     1  0.0000000  0.6508444  3
   1113   1111   1110   1114     1  0.0000000  0.6508444  3
   1113   1111   1110   1117     1  0.0000000  0.6508444  3
   1113   1111   1110   1139     1  0.0000000  0.6508444  3
   1113   1111   1123   1135     1  0.0000000  0.6508444  3
   1113   1111   1123   1124     1  0.0000000  0.6508444  3
   1113   1111   1123   1125     1  0.0000000  0.6508444  3
   1114   1110   1117   1118     1  0.0000000  0.6508444  3
   1114   1110   1117   1119     1  0.0000000  0.6508444  3
   1114   1126   1132   1133     1  0.0000000  0.6508444  3
   1114   1126   1132   1134     1  0.0000000  0.6508444  3
   1115   1114   1110   1117     1  0.0000000  0.6508444  3
   1115   1114   1110   1139     1  0.0000000  0.6508444  3
   1115   1114   1126   1132     1  0.0000000  0.6508444  3
   1115   1114   1126   1127     1  0.0000000  0.6508444  3
   1115   1114   1126   1128     1  0.0000000  0.6508444  3
   1116   1114   1110   1117     1  0.0000000  0.6508444  3
   1116   1114   1110   1139     1  0.0000000  0.6508444  3
   1116   1114   1126   1132     1  0.0000000  0.6508444  3
   1116   1114   1126   1127     1  0.0000000  0.6508444  3
   1116   1114   1126   1128     1  0.0000000  0.6508444  3
   1117   1120   1129   1130     1  0.0000000  0.6508444  3
   1117   1120   1129   1131     1  0.0000000  0.6508444  3
   1118   1117   1110   1139     1  0.0000000  0.6508444  3
   1118   1117   1120   1129     1  0.0000000  0.6508444  3
   1118   1117   1120   1121     1  0.0000000  0.6508444  3
   1118   1117   1120   1122     1  0.0000000  0.6508444  3
   1119   1117   1110   1139     1  0.0000000  0.6508444  3
   1119   1117   1120   1129     1  0.0000000  0.6508444  3
   1119   1117   1120   1121     1  0.0000000  0.6508444  3
   1119   1117   1120   1122     1  0.0000000  0.6508444  3
   1120   1117   1110   1139     1  0.0000000  0.6508444  3
   1121   1120   1129   1138     1  0.0000000  1.0460000  1
   1121   1120   1129   1138     1  0.0000000  0.0000000  3
   1121   1120   1129   1130     1  0.0000000  0.6508444  3
   1121   1120   1129   1131     1  0.0000000  0.6508444  3
   1122   1120   1129   1138     1  0.0000000  1.0460000  1
   1122   1120   1129   1138     1  0.0000000  0.0000000  3
   1122   1120   1129   1130     1  0.0000000  0.6508444  3
   1122   1120   1129   1131     1  0.0000000  0.6508444  3
   1123   1111   1110   1139     1  0.0000000  0.6508444  3
   1124   1123   1135   2338     1  0.0000000  1.0460000  1
   1124   1123   1135   2338     1  0.0000000  0.0000000  3
   1124   1123   1135   1136     1  0.0000000  0.6508444  3
   1124   1123   1135   1137     1  0.0000000  0.6508444  3
   1125   1123   1135   2338     1  0.0000000  1.0460000  1
   1125   1123   1135   2338     1  0.0000000  0.0000000  3
   1125   1123   1135   1136     1  0.0000000  0.6508444  3
   1125   1123   1135   1137     1  0.0000000  0.6508444  3
   1126   1114   1110   1139     1  0.0000000  0.6508444  3
   1127   1126   1132   2308     1  0.0000000  1.0460000  1
   1127   1126   1132   2308     1  0.0000000  0.0000000  3
   1127   1126   1132   1133     1  0.0000000  0.6508444  3
   1127   1126   1132   1134     1  0.0000000  0.6508444  3
   1128   1126   1132   2308     1  0.0000000  1.0460000  1
   1128   1126   1132   2308     1  0.0000000  0.0000000  3
   1128   1126   1132   1133     1  0.0000000  0.6508444  3
   1128   1126   1132   1134     1  0.0000000  0.6508444  3
   1132   2308   2299   2300     1  0.0000000  1.6038667  3
   1132   2308   2299   2301     1  0.0000000  1.6038667  3
   1133   1132   2308   2299     1  0.0000000  1.6038667  3
   1134   1132   2308   2299     1  0.0000000  1.6038667  3
   1135   2338   2329   2330     1  0.0000000  1.6038667  3
   1135   2338   2329   2331     1  0.0000000  1.6038667  3
   1136   1135   2338   2329     1  0.0000000  1.6038667  3
   1137   1135   2338   2329     1  0.0000000  1.6038667  3
   1140   1141   1153   1154     1  0.0000000  0.6508444  3
   1140   1141   1153   1155     1  0.0000000  0.6508444  3
   1140   1144   1156   1157     1  0.0000000  0.6508444  3
   1140   1144   1156   1158     1  0.0000000  0.6508444  3
   1140   1147   1150   1151     1  0.0000000  0.6508444  3
   1140   1147   1150   1152     1  0.0000000  0.6508444  3
   1141   1140   1144   1145     1  0.0000000  0.6508444  3
   1141   1140   1144   1146     1  0.0000000  0.6508444  3
   1141   1140   1147   1148     1  0.0000000  0.6508444  3
   1141   1140   1147   1149     1  0.0000000  0.6508444  3
   1141   1153   1165   1166     1  0.0000000  0.6508444  3
   1141   1153   1165   1167     1  0.0000000  0.6508444  3
   1142   1141   1140   1144     1  0.0000000  0.6508444  3
   1142   1141   1140   1147     1  0.0000000  0.6508444  3
   1142   1141   1140   1169     1  0.0000000  0.6508444  3
   1142   1141   1153   1165     1  0.0000000  0.6508444  3
   1142   1141   1153   1154     1  0.0000000  0.6508444  3
   1142   1141   1153   1155     1  0.0000000  0.6508444  3
   1143   1141   1140   1144     1  0.0000000  0.6508444  3
   1143   1141   1140   1147     1  0.0000000  0.6508444  3
   1143   1141   1140   1169     1  0.0000000  0.6508444  3
   1143   1141   1153   1165     1  0.0000000  0.6508444  3
   1143   1141   1153   1154     1  0.0000000  0.6508444  3
   1143   1141   1153   1155     1  0.0000000  0.6508444  3
   1144   1140   1147   1148     1  0.0000000  0.6508444  3
   1144   1140   1147   1149     1  0.0000000  0.6508444  3
   1144   1156   1162   1163     1  0.0000000  0.6508444  3
   1144   1156   1162   1164     1  0.0000000  0.6508444  3
   1145   1144   1140   1147     1  0.0000000  0.6508444  3
   1145   1144   1140   1169     1  0.0000000  0.6508444  3
   1145   1144   1156   1162     1  0.0000000  0.6508444  3
   1145   1144   1156   1157     1  0.0000000  0.6508444  3
   1145   1144   1156   1158     1  0.0000000  0.6508444  3
   1146   1144   1140   1147     1  0.0000000  0.6508444  3
   1146   1144   1140   1169     1  0.0000000  0.6508444  3
   1146   1144   1156   1162     1  0.0000000  0.6508444  3
   1146   1144   1156   1157     1  0.0000000  0.6508444  3
   1146   1144   1156   1158     1  0.0000000  0.6508444  3
   1147   1150   1159   1160     1  0.0000000  0.6508444  3
   1147   1150   1159   1161     1  0.0000000  0.6508444  3
   1148   1147   1140   1169     1  0.0000000  0.6508444  3
   1148   1147   1150   1159     1  0.0000000  0.6508444  3
   1148   1147   1150   1151     1  0.0000000  0.6508444  3
   1148   1147   1150   1152     1  0.0000000  0.6508444  3
   1149   1147   1140   1169     1  0.0000000  0.6508444  3
   1149   1147   1150   1159     1  0.0000000  0.6508444  3
   1149   1147   1150   1151     1  0.0000000  0.6508444  3
   1149   1147   1150   1152     1  0.0000000  0.6508444  3
   1150   1147   1140   1169     1  0.0000000  0.6508444  3
   1151   1150   1159   1168     1  0.0000000  1.0460000  1
   1151   1150   1159   1168     1  0.0000000  0.0000000  3
   1151   1150   1159   1160     1  0.0000000  0.6508444  3
   1151   1150   1159   1161     1  0.0000000  0.6508444  3
   1152   1150   1159   1168     1  0.0000000  1.0460000  1
   1152   1150   1159   1168     1  0.0000000  0.0000000  3
   1152   1150   1159   1160     1  0.0000000  0.6508444  3
   1152   1150   1159   1161     1  0.0000000  0.6508444  3
   1153   1141   1140   1169     1  0.0000000  0.6508444  3
   1154   1153   1165   2398     1  0.0000000  1.0460000  1
   1154   1153   1165   2398     1  0.0000000  0.0000000  3
   1154   1153   1165   1166     1  0.0000000  0.6508444  3
   1154   1153   1165   1167     1  0.0000000  0.6508444  3
   1155   1153   1165   2398     1  0.0000000  1.0460000  1
   1155   1153   1165   2398     1  0.0000000  0.0000000  3
   1155   1153   1165   1166     1  0.0000000  0.6508444  3
   1155   1153   1165   1167     1  0.0000000  0.6508444  3
   1156   1144   1140   1169     1  0.0000000  0.6508444  3
   1157   1156   1162   2368     1  0.0000000  1.0460000  1
   1157   1156   1162   2368     1  0.0000000  0.0000000  3
   1157   1156   1162   1163     1  0.0000000  0.6508444  3
   1157   1156   1162   1164     1  0.0000000  0.6508444  3
   1158   1156   1162   2368     1  0.0000000  1.0460000  1
   1158   1156   1162   2368     1  0.0000000  0.0000000  3
   1158   1156   1162   1163     1  0.0000000  0.6508444  3
   1158   1156   1162   1164     1  0.0000000  0.6508444  3
   1162   2368   2359   2360     1  0.0000000  1.6038667  3
   1162   2368   2359   2361     1  0.0000000  1.6038667  3
   1163   1162   2368   2359     1  0.0000000  1.6038667  3
   1164   1162   2368   2359     1  0.0000000  1.6038667  3
   1165   2398   2389   2390     1  0.0000000  1.6038667  3
   1165   2398   2389   2391     1  0.0000000  1.6038667  3
   1166   1165   2398   2389     1  0.0000000  1.6038667  3
   1167   1165   2398   2389     1  0.0000000  1.6038667  3
   1170   1171   1183   1184     1  0.0000000  0.6508444  3
   1170   1171   1183   1185     1  0.0000000  0.6508444  3
   1170   1174   1186   1187     1  0.0000000  0.6508444  3
   1170   1174   1186   1188     1  0.0000000  0.6508444  3
   1170   1177   1180   1181     1  0.0000000  0.6508444  3
   1170   1177   1180   1182     1  0.0000000  0.6508444  3
   1171   1170   1174   1175     1  0.0000000  0.6508444  3
   1171   1170   1174   1176     1  0.0000000  0.6508444  3
   1171   1170   1177   1178     1  0.0000000  0.6508444  3
   1171   1170   1177   1179     1  0.0000000  0.6508444  3
   1171   1183   1195   1196     1  0.0000000  0.6508444  3
   1171   1183   1195   1197     1  0.0000000  0.6508444  3
   1172   1171   1170   1174     1  0.0000000  0.6508444  3
   1172   1171   1170   1177     1  0.0000000  0.6508444  3
   1172   1171   1170   1199     1  0.0000000  0.6508444  3
   1172   1171   1183   1195     1  0.0000000  0.6508444  3
   1172   1171   1183   1184     1  0.0000000  0.6508444  3
   1172   1171   1183   1185     1  0.0000000  0.6508444  3
   1173   1171   1170   1174     1  0.0000000  0.6508444  3
   1173   1171   1170   1177     1  0.0000000  0.6508444  3
   1173   1171   1170   1199     1  0.0000000  0.6508444  3
   1173   1171   1183   1195     1  0.0000000  0.6508444  3
   1173   1171   1183   1184     1  0.0000000  0.6508444  3
   1173   1171   1183   1185     1  0.0000000  0.6508444  3
   1174   1170   1177   1178     1  0.0000000  0.6508444  3
   1174   1170   1177   1179     1  0.0000000  0.6508444  3
   1174   1186   1192   1193     1  0.0000000  0.6508444  3
   1174   1186   1192   1194     1  0.0000000  0.6508444  3
   1175   1174   1170   1177     1  0.0000000  0.6508444  3
   1175   1174   1170   1199     1  0.0000000  0.6508444  3
   1175   1174   1186   1192     1  0.0000000  0.6508444  3
   1175   1174   1186   1187     1  0.0000000  0.6508444  3
   1175   1174   1186   1188     1  0.0000000  0.6508444  3
   1176   1174   1170   1177     1  0.0000000  0.6508444  3
   1176   1174   1170   1199     1  0.0000000  0.6508444  3
   1176   1174   1186   1192     1  0.0000000  0.6508444  3
   1176   1174   1186   1187     1  0.0000000  0.6508444  3
   1176   1174   1186   1188     1  0.0000000  0.6508444  3
   1177   1180   1189   1190     1  0.0000000  0.6508444  3
   1177   1180   1189   1191     1  0.0000000  0.6508444  3
   1178   1177   1170   1199     1  0.0000000  0.6508444  3
   1178   1177   1180   1189     1  0.0000000  0.6508444  3
   1178   1177   1180   1181     1  0.0000000  0.6508444  3
   1178   1177   1180   1182     1  0.0000000  0.6508444  3
   1179   1177   1170   1199     1  0.0000000  0.6508444  3
   1179   1177   1180   1189     1  0.0000000  0.6508444  3
   1179   1177   1180   1181     1  0.0000000  0.6508444  3
   1179   1177   1180   1182     1  0.0000000  0.6508444  3
   1180   1177   1170   1199     1  0.0000000  0.6508444  3
   1181   1180   1189   1198     1  0.0000000  1.0460000  1
   1181   1180   1189   1198     1  0.0000000  0.0000000  3
   1181   1180   1189   1190     1  0.0000000  0.6508444  3
   1181   1180   1189   1191     1  0.0000000  0.6508444  3
   1182   1180   1189   1198     1  0.0000000  1.0460000  1
   1182   1180   1189   1198     1  0.0000000  0.0000000  3
   1182   1180   1189   1190     1  0.0000000  0.6508444  3
   1182   1180   1189   1191     1  0.0000000  0.6508444  3
   1183   1171   1170   1199     1  0.0000000  0.6508444  3
   1184   1183   1195   2458     1  0.0000000  1.0460000  1
   1184   1183   1195   2458     1  0.0000000  0.0000000  3
   1184   1183   1195   1196     1  0.0000000  0.6508444  3
   1184   1183   1195   1197     1  0.0000000  0.6508444  3
   1185   1183   1195   2458     1  0.0000000  1.0460000  1
   1185   1183   1195   2458     1  0.0000000  0.0000000  3
   1185   1183   1195   1196     1  0.0000000  0.6508444  3
   1185   1183   1195   1197     1  0.0000000  0.6508444  3
   1186   1174   1170   1199     1  0.0000000  0.6508444  3
   1187   1186   1192   2428     1  0.0000000  1.0460000  1
   1187   1186   1192   2428     1  0.0000000  0.0000000  3
   1187   1186   1192   1193     1  0.0000000  0.6508444  3
   1187   1186   1192   1194     1  0.0000000  0.6508444  3
   1188   1186   1192   2428     1  0.0000000  1.0460000  1
   1188   1186   1192   2428     1  0.0000000  0.0000000  3
   1188   1186   1192   1193     1  0.0000000  0.6508444  3
   1188   1186   1192   1194     1  0.0000000  0.6508444  3
   1192   2428   2419   2420     1  0.0000000  1.6038667  3
   1192   2428   2419   2421     1  0.0000000  1.6038667  3
   1193   1192   2428   2419     1  0.0000000  1.6038667  3
   1194   1192   2428   2419     1  0.0000000  1.6038667  3
   1195   2458   2449   2450     1  0.0000000  1.6038667  3
   1195   2458   2449   2451     1  0.0000000  1.6038667  3
   1196   1195   2458   2449     1  0.0000000  1.6038667  3
   1197   1195   2458   2449     1  0.0000000  1.6038667  3
   1200   1201   1213   1214     1  0.0000000  0.6508444  3
   1200   1201   1213   1215     1  0.0000000  0.6508444  3
   1200   1204   1216   1217     1  0.0000000  0.6508444  3
   1200   1204   1216   1218     1  0.0000000  0.6508444  3
   1200   1207   1210   1211     1  0.0000000  0.6508444  3
   1200   1207   1210   1212     1  0.0000000  0.6508444  3
   1201   1200   1204   1205     1  0.0000000  0.6508444  3
   1201   1200   1204   1206     1  0.0000000  0.6508444  3
   1201   1200   1207   1208     1  0.0000000  0.6508444  3
   1201   1200   1207   1209     1  0.0000000  0.6508444  3
   1201   1213   1225   1226     1  0.0000000  0.6508444  3
   1201   1213   1225   1227     1  0.0000000  0.6508444  3
   1202   1201   1200   1204     1  0.0000000  0.6508444  3
   1202   1201   1200   1207     1  0.0000000  0.6508444  3
   1202   1201   1200   1229     1  0.0000000  0.6508444  3
   1202   1201   1213   1225     1  0.0000000  0.6508444  3
   1202   1201   1213   1214     1  0.0000000  0.6508444  3
   1202   1201   1213   1215     1  0.0000000  0.6508444  3
   1203   1201   1200   1204     1  0.0000000  0.6508444  3
   1203   1201   1200   1207     1  0.0000000  0.6508444  3
   1203   1201   1200   1229     1  0.0000000  0.6508444  3
   1203   1201   1213   1225     1  0.0000000  0.6508444  3
   1203   1201   1213   1214     1  0.0000000  0.6508444  3
   1203   1201   1213   1215     1  0.0000000  0.6508444  3
   1204   1200   1207   1208     1  0.0000000  0.6508444  3
   1204   1200   1207   1209     1  0.0000000  0.6508444  3
   1204   1216   1222   1223     1  0.0000000  0.6508444  3
   1204   1216   1222   1224     1  0.0000000  0.6508444  3
   1205   1204   1200   1207     1  0.0000000  0.6508444  3
   1205   1204   1200   1229     1  0.0000000  0.6508444  3
   1205   1204   1216   1222     1  0.0000000  0.6508444  3
   1205   1204   1216   1217     1  0.0000000  0.6508444  3
   1205   1204   1216   1218     1  0.0000000  0.6508444  3
   1206   1204   1200   1207     1  0.0000000  0.6508444  3
   1206   1204   1200   1229     1  0.0000000  0.6508444  3
   1206   1204   1216   1222     1  0.0000000  0.6508444  3
   1206   1204   1216   1217     1  0.0000000  0.6508444  3
   1206   1204   1216   1218     1  0.0000000  0.6508444  3
   1207   1210   1219   1220     1  0.0000000  0.6508444  3
   1207   1210   1219   1221     1  0.0000000  0.6508444  3
   1208   1207   1200   1229     1  0.0000000  0.6508444  3
   1208   1207   1210   1219     1  0.0000000  0.6508444  3
   1208   1207   1210   1211     1  0.0000000  0.6508444  3
   1208   1207   1210   1212     1  0.0000000  0.6508444  3
   1209   1207   1200   1229     1  0.0000000  0.6508444  3
   1209   1207   1210   1219     1  0.0000000  0.6508444  3
   1209   1207   1210   1211     1  0.0000000  0.6508444  3
   1209   1207   1210   1212     1  0.0000000  0.6508444  3
   1210   1207   1200   1229     1  0.0000000  0.6508444  3
   1211   1210   1219   1228     1  0.0000000  1.0460000  1
   1211   1210   1219   1228     1  0.0000000  0.0000000  3
   1211   1210   1219   1220     1  0.0000000  0.6508444  3
   1211   1210   1219   1221     1  0.0000000  0.6508444  3
   1212   1210   1219   1228     1  0.0000000  1.0460000  1
   1212   1210   1219   1228     1  0.0000000  0.0000000  3
   1212   1210   1219   1220     1  0.0000000  0.6508444  3
   1212   1210   1219   1221     1  0.0000000  0.6508444  3
   1213   1201   1200   1229     1  0.0000000  0.6508444  3
   1214   1213   1225   2518     1  0.0000000  1.0460000  1
   1214   1213   1225   2518     1  0.0000000  0.0000000  3
   1214   1213   1225   1226     1  0.0000000  0.6508444  3
   1214   1213   1225   1227     1  0.0000000  0.6508444  3
   1215   1213   1225   2518     1  0.0000000  1.0460000  1
   1215   1213   1225   2518     1  0.0000000  0.0000000  3
   1215   1213   1225   1226     1  0.0000000  0.6508444  3
   1215   1213   1225   1227     1  0.0000000  0.6508444  3
   1216   1204   1200   1229     1  0.0000000  0.6508444  3
   1217   1216   1222   2488     1  0.0000000  1.0460000  1
   1217   1216   1222   2488     1  0.0000000  0.0000000  3
   1217   1216   1222   1223     1  0.0000000  0.6508444  3
   1217   1216   1222   1224     1  0.0000000  0.6508444  3
   1218   1216   1222   2488     1  0.0000000  1.0460000  1
   1218   1216   1222   2488     1  0.0000000  0.0000000  3
   1218   1216   1222   1223     1  0.0000000  0.6508444  3
   1218   1216   1222   1224     1  0.0000000  0.6508444  3
   1222   2488   2479   2480     1  0.0000000  1.6038667  3
   1222   2488   2479   2481     1  0.0000000  1.6038667  3
   1223   1222   2488   2479     1  0.0000000  1.6038667  3
   1224   1222   2488   2479     1  0.0000000  1.6038667  3
   1225   2518   2509   2510     1  0.0000000  1.6038667  3
   1225   2518   2509   2511     1  0.0000000  1.6038667  3
   1226   1225   2518   2509     1  0.0000000  1.6038667  3
   1227   1225   2518   2509     1  0.0000000  1.6038667  3
   1230   1231   1243   1244     1  0.0000000  0.6508444  3
   1230   1231   1243   1245     1  0.0000000  0.6508444  3
   1230   1234   1246   1247     1  0.0000000  0.6508444  3
   1230   1234   1246   1248     1  0.0000000  0.6508444  3
   1230   1237   1240   1241     1  0.0000000  0.6508444  3
   1230   1237   1240   1242     1  0.0000000  0.6508444  3
   1231   1230   1234   1235     1  0.0000000  0.6508444  3
   1231   1230   1234   1236     1  0.0000000  0.6508444  3
   1231   1230   1237   1238     1  0.0000000  0.6508444  3
   1231   1230   1237   1239     1  0.0000000  0.6508444  3
   1231   1243   1255   1256     1  0.0000000  0.6508444  3
   1231   1243   1255   1257     1  0.0000000  0.6508444  3
   1232   1231   1230   1234     1  0.0000000  0.6508444  3
   1232   1231   1230   1237     1  0.0000000  0.6508444  3
   1232   1231   1230   1259     1  0.0000000  0.6508444  3
   1232   1231   1243   1255     1  0.0000000  0.6508444  3
   1232   1231   1243   1244     1  0.0000000  0.6508444  3
   1232   1231   1243   1245     1  0.0000000  0.6508444  3
   1233   1231   1230   1234     1  0.0000000  0.6508444  3
   1233   1231   1230   1237     1  0.0000000  0.6508444  3
   1233   1231   1230   1259     1  0.0000000  0.6508444  3
   1233   1231   1243   1255     1  0.0000000  0.6508444  3
   1233   1231   1243   1244     1  0.0000000  0.6508444  3
   1233   1231   1243   1245     1  0.0000000  0.6508444  3
   1234   1230   1237   1238     1  0.0000000  0.6508444  3
   1234   1230   1237   1239     1  0.0000000  0.6508444  3
   1234   1246   1252   1253     1  0.0000000  0.6508444  3
   1234   1246   1252   1254     1  0.0000000  0.6508444  3
   1235   1234   1230   1237     1  0.0000000  0.6508444  3
   1235   1234   1230   1259     1  0.0000000  0.6508444  3
   1235   1234   1246   1252     1  0.0000000  0.6508444  3
   1235   1234   1246   1247     1  0.0000000  0.6508444  3
   1235   1234   1246   1248     1  0.0000000  0.6508444  3
   1236   1234   1230   1237     1  0.0000000  0.6508444  3
   1236   1234   1230   1259     1  0.0000000  0.6508444  3
   1236   1234   1246   1252     1  0.0000000  0.6508444  3
   1236   1234   1246   1247     1  0.0000000  0.6508444  3
   1236   1234   1246   1248     1  0.0000000  0.6508444  3
   1237   1240   1249   1250     1  0.0000000  0.6508444  3
   1237   1240   1249   1251     1  0.0000000  0.6508444  3
   1238   1237   1230   1259     1  0.0000000  0.6508444  3
   1238   1237   1240   1249     1  0.0000000  0.6508444  3
   1238   1237   1240   1241     1  0.0000000  0.6508444  3
   1238   1237   1240   1242     1  0.0000000  0.6508444  3
   1239   1237   1230   1259     1  0.0000000  0.6508444  3
   1239   1237   1240   1249     1  0.0000000  0.6508444  3
   1239   1237   1240   1241     1  0.0000000  0.6508444  3
   1239   1237   1240   1242     1  0.0000000  0.6508444  3
   1240   1237   1230   1259     1  0.0000000  0.6508444  3
   1241   1240   1249   1258     1  0.0000000  1.0460000  1
   1241   1240   1249   1258     1  0.0000000  0.0000000  3
   1241   1240   1249   1250     1  0.0000000  0.6508444  3
   1241   1240   1249   1251     1  0.0000000  0.6508444  3
   1242   1240   1249   1258     1  0.0000000  1.0460000  1
   1242   1240   1249   1258     1  0.0000000  0.0000000  3
   1242   1240   1249   1250     1  0.0000000  0.6508444  3
   1242   1240   1249   1251     1  0.0000000  0.6508444  3
   1243   1231   1230   1259     1  0.0000000  0.6508444  3
   1244   1243   1255   2578     1  0.0000000  1.0460000  1
   1244   1243   1255   2578     1  0.0000000  0.0000000  3
   1244   1243   1255   1256     1  0.0000000  0.6508444  3
   1244   1243   1255   1257     1  0.0000000  0.6508444  3
   1245   1243   1255   2578     1  0.0000000  1.0460000  1
   1245   1243   1255   2578     1  0.0000000  0.0000000  3
   1245   1243   1255   1256     1  0.0000000  0.6508444  3
   1245   1243   1255   1257     1  0.0000000  0.6508444  3
   1246   1234   1230   1259     1  0.0000000  0.6508444  3
   1247   1246   1252   2548     1  0.0000000  1.0460000  1
   1247   1246   1252   2548     1  0.0000000  0.0000000  3
   1247   1246   1252   1253     1  0.0000000  0.6508444  3
   1247   1246   1252   1254     1  0.0000000  0.6508444  3
   1248   1246   1252   2548     1  0.0000000  1.0460000  1
   1248   1246   1252   2548     1  0.0000000  0.0000000  3
   1248   1246   1252   1253     1  0.0000000  0.6508444  3
   1248   1246   1252   1254     1  0.0000000  0.6508444  3
   1252   2548   2539   2540     1  0.0000000  1.6038667  3
   1252   2548   2539   2541     1  0.0000000  1.6038667  3
   1253   1252   2548   2539     1  0.0000000  1.6038667  3
   1254   1252   2548   2539     1  0.0000000  1.6038667  3
   1255   2578   2569   2570     1  0.0000000  1.6038667  3
   1255   2578   2569   2571     1  0.0000000  1.6038667  3
   1256   1255   2578   2569     1  0.0000000  1.6038667  3
   1257   1255   2578   2569     1  0.0000000  1.6038667  3
   1260   1261   1273   1274     1  0.0000000  0.6508444  3
   1260   1261   1273   1275     1  0.0000000  0.6508444  3
   1260   1264   1276   1277     1  0.0000000  0.6508444  3
   1260   1264   1276   1278     1  0.0000000  0.6508444  3
   1260   1267   1270   1271     1  0.0000000  0.6508444  3
   1260   1267   1270   1272     1  0.0000000  0.6508444  3
   1261   1260   1264   1265     1  0.0000000  0.6508444  3
   1261   1260   1264   1266     1  0.0000000  0.6508444  3
   1261   1260   1267   1268     1  0.0000000  0.6508444  3
   1261   1260   1267   1269     1  0.0000000  0.6508444  3
   1261   1273   1285   1286     1  0.0000000  0.6508444  3
   1261   1273   1285   1287     1  0.0000000  0.6508444  3
   1262   1261   1260   1264     1  0.0000000  0.6508444  3
   1262   1261   1260   1267     1  0.0000000  0.6508444  3
   1262   1261   1260   1289     1  0.0000000  0.6508444  3
   1262   1261   1273   1285     1  0.0000000  0.6508444  3
   1262   1261   1273   1274     1  0.0000000  0.6508444  3
   1262   1261   1273   1275     1  0.0000000  0.6508444  3
   1263   1261   1260   1264     1  0.0000000  0.6508444  3
   1263   1261   1260   1267     1  0.0000000  0.6508444  3
   1263   1261   1260   1289     1  0.0000000  0.6508444  3
   1263   1261   1273   1285     1  0.0000000  0.6508444  3
   1263   1261   1273   1274     1  0.0000000  0.6508444  3
   1263   1261   1273   1275     1  0.0000000  0.6508444  3
   1264   1260   1267   1268     1  0.0000000  0.6508444  3
   1264   1260   1267   1269     1  0.0000000  0.6508444  3
   1264   1276   1282   1283     1  0.0000000  0.6508444  3
   1264   1276   1282   1284     1  0.0000000  0.6508444  3
   1265   1264   1260   1267     1  0.0000000  0.6508444  3
   1265   1264   1260   1289     1  0.0000000  0.6508444  3
   1265   1264   1276   1282     1  0.0000000  0.6508444  3
   1265   1264   1276   1277     1  0.0000000  0.6508444  3
   1265   1264   1276   1278     1  0.0000000  0.6508444  3
   1266   1264   1260   1267     1  0.0000000  0.6508444  3
   1266   1264   1260   1289     1  0.0000000  0.6508444  3
   1266   1264   1276   1282     1  0.0000000  0.6508444  3
   1266   1264   1276   1277     1  0.0000000  0.6508444  3
   1266   1264   1276   1278     1  0.0000000  0.6508444  3
   1267   1270   1279   1280     1  0.0000000  0.6508444  3
   1267   1270   1279   1281     1  0.0000000  0.6508444  3
   1268   1267   1260   1289     1  0.0000000  0.6508444  3
   1268   1267   1270   1279     1  0.0000000  0.6508444  3
   1268   1267   1270   1271     1  0.0000000  0.6508444  3
   1268   1267   1270   1272     1  0.0000000  0.6508444  3
   1269   1267   1260   1289     1  0.0000000  0.6508444  3
   1269   1267   1270   1279     1  0.0000000  0.6508444  3
   1269   1267   1270   1271     1  0.0000000  0.6508444  3
   1269   1267   1270   1272     1  0.0000000  0.6508444  3
   1270   1267   1260   1289     1  0.0000000  0.6508444  3
   1271   1270   1279   1288     1  0.0000000  1.0460000  1
   1271   1270   1279   1288     1  0.0000000  0.0000000  3
   1271   1270   1279   1280     1  0.0000000  0.6508444  3
   1271   1270   1279   1281     1  0.0000000  0.6508444  3
   1272   1270   1279   1288     1  0.0000000  1.0460000  1
   1272   1270   1279   1288     1  0.0000000  0.0000000  3
   1272   1270   1279   1280     1  0.0000000  0.6508444  3
   1272   1270   1279   1281     1  0.0000000  0.6508444  3
   1273   1261   1260   1289     1  0.0000000  0.6508444  3
   1274   1273   1285   2638     1  0.0000000  1.0460000  1
   1274   1273   1285   2638     1  0.0000000  0.0000000  3
   1274   1273   1285   1286     1  0.0000000  0.6508444  3
   1274   1273   1285   1287     1  0.0000000  0.6508444  3
   1275   1273   1285   2638     1  0.0000000  1.0460000  1
   1275   1273   1285   2638     1  0.0000000  0.0000000  3
   1275   1273   1285   1286     1  0.0000000  0.6508444  3
   1275   1273   1285   1287     1  0.0000000  0.6508444  3
   1276   1264   1260   1289     1  0.0000000  0.6508444  3
   1277   1276   1282   2608     1  0.0000000  1.0460000  1
   1277   1276   1282   2608     1  0.0000000  0.0000000  3
   1277   1276   1282   1283     1  0.0000000  0.6508444  3
   1277   1276   1282   1284     1  0.0000000  0.6508444  3
   1278   1276   1282   2608     1  0.0000000  1.0460000  1
   1278   1276   1282   2608     1  0.0000000  0.0000000  3
   1278   1276   1282   1283     1  0.0000000  0.6508444  3
   1278   1276   1282   1284     1  0.0000000  0.6508444  3
   1282   2608   2599   2600     1  0.0000000  1.6038667  3
   1282   2608   2599   2601     1  0.0000000  1.6038667  3
   1283   1282   2608   2599     1  0.0000000  1.6038667  3
   1284   1282   2608   2599     1  0.0000000  1.6038667  3
   1285   2638   2629   2630     1  0.0000000  1.6038667  3
   1285   2638   2629   2631     1  0.0000000  1.6038667  3
   1286   1285   2638   2629     1  0.0000000  1.6038667  3
   1287   1285   2638   2629     1  0.0000000  1.6038667  3
   1290   1291   1303   1304     1  0.0000000  0.6508444  3
   1290   1291   1303   1305     1  0.0000000  0.6508444  3
   1290   1294   1306   1307     1  0.0000000  0.6508444  3
   1290   1294   1306   1308     1  0.0000000  0.6508444  3
   1290   1297   1300   1301     1  0.0000000  0.6508444  3
   1290   1297   1300   1302     1  0.0000000  0.6508444  3
   1291   1290   1294   1295     1  0.0000000  0.6508444  3
   1291   1290   1294   1296     1  0.0000000  0.6508444  3
   1291   1290   1297   1298     1  0.0000000  0.6508444  3
   1291   1290   1297   1299     1  0.0000000  0.6508444  3
   1291   1303   1315   1316     1  0.0000000  0.6508444  3
   1291   1303   1315   1317     1  0.0000000  0.6508444  3
   1292   1291   1290   1294     1  0.0000000  0.6508444  3
   1292   1291   1290   1297     1  0.0000000  0.6508444  3
   1292   1291   1290   1319     1  0.0000000  0.6508444  3
   1292   1291   1303   1315     1  0.0000000  0.6508444  3
   1292   1291   1303   1304     1  0.0000000  0.6508444  3
   1292   1291   1303   1305     1  0.0000000  0.6508444  3
   1293   1291   1290   1294     1  0.0000000  0.6508444  3
   1293   1291   1290   1297     1  0.0000000  0.6508444  3
   1293   1291   1290   1319     1  0.0000000  0.6508444  3
   1293   1291   1303   1315     1  0.0000000  0.6508444  3
   1293   1291   1303   1304     1  0.0000000  0.6508444  3
   1293   1291   1303   1305     1  0.0000000  0.6508444  3
   1294   1290   1297   1298     1  0.0000000  0.6508444  3
   1294   1290   1297   1299     1  0.0000000  0.6508444  3
   1294   1306   1312   1313     1  0.0000000  0.6508444  3
   1294   1306   1312   1314     1  0.0000000  0.6508444  3
   1295   1294   1290   1297     1  0.0000000  0.6508444  3
   1295   1294   1290   1319     1  0.0000000  0.6508444  3
   1295   1294   1306   1312     1  0.0000000  0.6508444  3
   1295   1294   1306   1307     1  0.0000000  0.6508444  3
   1295   1294   1306   1308     1  0.0000000  0.6508444  3
   1296   1294   1290   1297     1  0.0000000  0.6508444  3
   1296   1294   1290   1319     1  0.0000000  0.6508444  3
   1296   1294   1306   1312     1  0.0000000  0.6508444  3
   1296   1294   1306   1307     1  0.0000000  0.6508444  3
   1296   1294   1306   1308     1  0.0000000  0.6508444  3
   1297   1300   1309   1310     1  0.0000000  0.6508444  3
   1297   1300   1309   1311     1  0.0000000  0.6508444  3
   1298   1297   1290   1319     1  0.0000000  0.6508444  3
   1298   1297   1300   1309     1  0.0000000  0.6508444  3
   1298   1297   1300   1301     1  0.0000000  0.6508444  3
   1298   1297   1300   1302     1  0.0000000  0.6508444  3
   1299   1297   1290   1319     1  0.0000000  0.6508444  3
   1299   1297   1300   1309     1  0.0000000  0.6508444  3
   1299   1297   1300   1301     1  0.0000000  0.6508444  3
   1299   1297   1300   1302     1  0.0000000  0.6508444  3
   1300   1297   1290   1319     1  0.0000000  0.6508444  3
   1301   1300   1309   1318     1  0.0000000  1.0460000  1
   1301   1300   1309   1318     1  0.0000000  0.0000000  3
   1301   1300   1309   1310     1  0.0000000  0.6508444  3
   1301   1300   1309   1311     1  0.0000000  0.6508444  3
   1302   1300   1309   1318     1  0.0000000  1.0460000  1
   1302   1300   1309   1318     1  0.0000000  0.0000000  3
   1302   1300   1309   1310     1  0.0000000  0.6508444  3
   1302   1300   1309   1311     1  0.0000000  0.6508444  3
   1303   1291   1290   1319     1  0.0000000  0.6508444  3
   1304   1303   1315   2698     1  0.0000000  1.0460000  1
   1304   1303   1315   2698     1  0.0000000  0.0000000  3
   1304   1303   1315   1316     1  0.0000000  0.6508444  3
   1304   1303   1315   1317     1  0.0000000  0.6508444  3
   1305   1303   1315   2698     1  0.0000000  1.0460000  1
   1305   1303   1315   2698     1  0.0000000  0.0000000  3
   1305   1303   1315   1316     1  0.0000000  0.6508444  3
   1305   1303   1315   1317     1  0.0000000  0.6508444  3
   1306   1294   1290   1319     1  0.0000000  0.6508444  3
   1307   1306   1312   2668     1  0.0000000  1.0460000  1
   1307   1306   1312   2668     1  0.0000000  0.0000000  3
   1307   1306   1312   1313     1  0.0000000  0.6508444  3
   1307   1306   1312   1314     1  0.0000000  0.6508444  3
   1308   1306   1312   2668     1  0.0000000  1.0460000  1
   1308   1306   1312   2668     1  0.0000000  0.0000000  3
   1308   1306   1312   1313     1  0.0000000  0.6508444  3
   1308   1306   1312   1314     1  0.0000000  0.6508444  3
   1312   2668   2659   2660     1  0.0000000  1.6038667  3
   1312   2668   2659   2661     1  0.0000000  1.6038667  3
   1313   1312   2668   2659     1  0.0000000  1.6038667  3
   1314   1312   2668   2659     1  0.0000000  1.6038667  3
   1315   2698   2689   2690     1  0.0000000  1.6038667  3
   1315   2698   2689   2691     1  0.0000000  1.6038667  3
   1316   1315   2698   2689     1  0.0000000  1.6038667  3
   1317   1315   2698   2689     1  0.0000000  1.6038667  3
   1320   1321   1333   1334     1  0.0000000  0.6508444  3
   1320   1321   1333   1335     1  0.0000000  0.6508444  3
   1320   1324   1336   1337     1  0.0000000  0.6508444  3
   1320   1324   1336   1338     1  0.0000000  0.6508444  3
   1320   1327   1330   1331     1  0.0000000  0.6508444  3
   1320   1327   1330   1332     1  0.0000000  0.6508444  3
   1321   1320   1324   1325     1  0.0000000  0.6508444  3
   1321   1320   1324   1326     1  0.0000000  0.6508444  3
   1321   1320   1327   1328     1  0.0000000  0.6508444  3
   1321   1320   1327   1329     1  0.0000000  0.6508444  3
   1321   1333   1345   1346     1  0.0000000  0.6508444  3
   1321   1333   1345   1347     1  0.0000000  0.6508444  3
   1322   1321   1320   1324     1  0.0000000  0.6508444  3
   1322   1321   1320   1327     1  0.0000000  0.6508444  3
   1322   1321   1320   1349     1  0.0000000  0.6508444  3
   1322   1321   1333   1345     1  0.0000000  0.6508444  3
   1322   1321   1333   1334     1  0.0000000  0.6508444  3
   1322   1321   1333   1335     1  0.0000000  0.6508444  3
   1323   1321   1320   1324     1  0.0000000  0.6508444  3
   1323   1321   1320   1327     1  0.0000000  0.6508444  3
   1323   1321   1320   1349     1  0.0000000  0.6508444  3
   1323   1321   1333   1345     1  0.0000000  0.6508444  3
   1323   1321   1333   1334     1  0.0000000  0.6508444  3
   1323   1321   1333   1335     1  0.0000000  0.6508444  3
   1324   1320   1327   1328     1  0.0000000  0.6508444  3
   1324   1320   1327   1329     1  0.0000000  0.6508444  3
   1324   1336   1342   1343     1  0.0000000  0.6508444  3
   1324   1336   1342   1344     1  0.0000000  0.6508444  3
   1325   1324   1320   1327     1  0.0000000  0.6508444  3
   1325   1324   1320   1349     1  0.0000000  0.6508444  3
   1325   1324   1336   1342     1  0.0000000  0.6508444  3
   1325   1324   1336   1337     1  0.0000000  0.6508444  3
   1325   1324   1336   1338     1  0.0000000  0.6508444  3
   1326   1324   1320   1327     1  0.0000000  0.6508444  3
   1326   1324   1320   1349     1  0.0000000  0.6508444  3
   1326   1324   1336   1342     1  0.0000000  0.6508444  3
   1326   1324   1336   1337     1  0.0000000  0.6508444  3
   1326   1324   1336   1338     1  0.0000000  0.6508444  3
   1327   1330   1339   1340     1  0.0000000  0.6508444  3
   1327   1330   1339   1341     1  0.0000000  0.6508444  3
   1328   1327   1320   1349     1  0.0000000  0.6508444  3
   1328   1327   1330   1339     1  0.0000000  0.6508444  3
   1328   1327   1330   1331     1  0.0000000  0.6508444  3
   1328   1327   1330   1332     1  0.0000000  0.6508444  3
   1329   1327   1320   1349     1  0.0000000  0.6508444  3
   1329   1327   1330   1339     1  0.0000000  0.6508444  3
   1329   1327   1330   1331     1  0.0000000  0.6508444  3
   1329   1327   1330   1332     1  0.0000000  0.6508444  3
   1330   1327   1320   1349     1  0.0000000  0.6508444  3
   1331   1330   1339   1348     1  0.0000000  1.0460000  1
   1331   1330   1339   1348     1  0.0000000  0.0000000  3
   1331   1330   1339   1340     1  0.0000000  0.6508444  3
   1331   1330   1339   1341     1  0.0000000  0.6508444  3
   1332   1330   1339   1348     1  0.0000000  1.0460000  1
   1332   1330   1339   1348     1  0.0000000  0.0000000  3
   1332   1330   1339   1340     1  0.0000000  0.6508444  3
   1332   1330   1339   1341     1  0.0000000  0.6508444  3
   1333   1321   1320   1349     1  0.0000000  0.6508444  3
   1334   1333   1345   2758     1  0.0000000  1.0460000  1
   1334   1333   1345   2758     1  0.0000000  0.0000000  3
   1334   1333   1345   1346     1  0.0000000  0.6508444  3
   1334   1333   1345   1347     1  0.0000000  0.6508444  3
   1335   1333   1345   2758     1  0.0000000  1.0460000  1
   1335   1333   1345   2758     1  0.0000000  0.0000000  3
   1335   1333   1345   1346     1  0.0000000  0.6508444  3
   1335   1333   1345   1347     1  0.0000000  0.6508444  3
   1336   1324   1320   1349     1  0.0000000  0.6508444  3
   1337   1336   1342   2728     1  0.0000000  1.0460000  1
   1337   1336   1342   2728     1  0.0000000  0.0000000  3
   1337   1336   1342   1343     1  0.0000000  0.6508444  3
   1337   1336   1342   1344     1  0.0000000  0.6508444  3
   1338   1336   1342   2728     1  0.0000000  1.0460000  1
   1338   1336   1342   2728     1  0.0000000  0.0000000  3
   1338   1336   1342   1343     1  0.0000000  0.6508444  3
   1338   1336   1342   1344     1  0.0000000  0.6508444  3
   1342   2728   2719   2720     1  0.0000000  1.6038667  3
   1342   2728   2719   2721     1  0.0000000  1.6038667  3
   1343   1342   2728   2719     1  0.0000000  1.6038667  3
   1344   1342   2728   2719     1  0.0000000  1.6038667  3
   1345   2758   2749   2750     1  0.0000000  1.6038667  3
   1345   2758   2749   2751     1  0.0000000  1.6038667  3
   1346   1345   2758   2749     1  0.0000000  1.6038667  3
   1347   1345   2758   2749     1  0.0000000  1.6038667  3
   1350   1351   1363   1364     1  0.0000000  0.6508444  3
   1350   1351   1363   1365     1  0.0000000  0.6508444  3
   1350   1354   1366   1367     1  0.0000000  0.6508444  3
   1350   1354   1366   1368     1  0.0000000  0.6508444  3
   1350   1357   1360   1361     1  0.0000000  0.6508444  3
   1350   1357   1360   1362     1  0.0000000  0.6508444  3
   1351   1350   1354   1355     1  0.0000000  0.6508444  3
   1351   1350   1354   1356     1  0.0000000  0.6508444  3
   1351   1350   1357   1358     1  0.0000000  0.6508444  3
   1351   1350   1357   1359     1  0.0000000  0.6508444  3
   1351   1363   1375   1376     1  0.0000000  0.6508444  3
   1351   1363   1375   1377     1  0.0000000  0.6508444  3
   1352   1351   1350   1354     1  0.0000000  0.6508444  3
   1352   1351   1350   1357     1  0.0000000  0.6508444  3
   1352   1351   1350   1379     1  0.0000000  0.6508444  3
   1352   1351   1363   1375     1  0.0000000  0.6508444  3
   1352   1351   1363   1364     1  0.0000000  0.6508444  3
   1352   1351   1363   1365     1  0.0000000  0.6508444  3
   1353   1351   1350   1354     1  0.0000000  0.6508444  3
   1353   1351   1350   1357     1  0.0000000  0.6508444  3
   1353   1351   1350   1379     1  0.0000000  0.6508444  3
   1353   1351   1363   1375     1  0.0000000  0.6508444  3
   1353   1351   1363   1364     1  0.0000000  0.6508444  3
   1353   1351   1363   1365     1  0.0000000  0.6508444  3
   1354   1350   1357   1358     1  0.0000000  0.6508444  3
   1354   1350   1357   1359     1  0.0000000  0.6508444  3
   1354   1366   1372   1373     1  0.0000000  0.6508444  3
   1354   1366   1372   1374     1  0.0000000  0.6508444  3
   1355   1354   1350   1357     1  0.0000000  0.6508444  3
   1355   1354   1350   1379     1  0.0000000  0.6508444  3
   1355   1354   1366   1372     1  0.0000000  0.6508444  3
   1355   1354   1366   1367     1  0.0000000  0.6508444  3
   1355   1354   1366   1368     1  0.0000000  0.6508444  3
   1356   1354   1350   1357     1  0.0000000  0.6508444  3
   1356   1354   1350   1379     1  0.0000000  0.6508444  3
   1356   1354   1366   1372     1  0.0000000  0.6508444  3
   1356   1354   1366   1367     1  0.0000000  0.6508444  3
   1356   1354   1366   1368     1  0.0000000  0.6508444  3
   1357   1360   1369   1370     1  0.0000000  0.6508444  3
   1357   1360   1369   1371     1  0.0000000  0.6508444  3
   1358   1357   1350   1379     1  0.0000000  0.6508444  3
   1358   1357   1360   1369     1  0.0000000  0.6508444  3
   1358   1357   1360   1361     1  0.0000000  0.6508444  3
   1358   1357   1360   1362     1  0.0000000  0.6508444  3
   1359   1357   1350   1379     1  0.0000000  0.6508444  3
   1359   1357   1360   1369     1  0.0000000  0.6508444  3
   1359   1357   1360   1361     1  0.0000000  0.6508444  3
   1359   1357   1360   1362     1  0.0000000  0.6508444  3
   1360   1357   1350   1379     1  0.0000000  0.6508444  3
   1361   1360   1369   1378     1  0.0000000  1.0460000  1
   1361   1360   1369   1378     1  0.0000000  0.0000000  3
   1361   1360   1369   1370     1  0.0000000  0.6508444  3
   1361   1360   1369   1371     1  0.0000000  0.6508444  3
   1362   1360   1369   1378     1  0.0000000  1.0460000  1
   1362   1360   1369   1378     1  0.0000000  0.0000000  3
   1362   1360   1369   1370     1  0.0000000  0.6508444  3
   1362   1360   1369   1371     1  0.0000000  0.6508444  3
   1363   1351   1350   1379     1  0.0000000  0.6508444  3
   1364   1363   1375   2818     1  0.0000000  1.0460000  1
   1364   1363   1375   2818     1  0.0000000  0.0000000  3
   1364   1363   1375   1376     1  0.0000000  0.6508444  3
   1364   1363   1375   1377     1  0.0000000  0.6508444  3
   1365   1363   1375   2818     1  0.0000000  1.0460000  1
   1365   1363   1375   2818     1  0.0000000  0.0000000  3
   1365   1363   1375   1376     1  0.0000000  0.6508444  3
   1365   1363   1375   1377     1  0.0000000  0.6508444  3
   1366   1354   1350   1379     1  0.0000000  0.6508444  3
   1367   1366   1372   2788     1  0.0000000  1.0460000  1
   1367   1366   1372   2788     1  0.0000000  0.0000000  3
   1367   1366   1372   1373     1  0.0000000  0.6508444  3
   1367   1366   1372   1374     1  0.0000000  0.6508444  3
   1368   1366   1372   2788     1  0.0000000  1.0460000  1
   1368   1366   1372   2788     1  0.0000000  0.0000000  3
   1368   1366   1372   1373     1  0.0000000  0.6508444  3
   1368   1366   1372   1374     1  0.0000000  0.6508444  3
   1372   2788   2779   2780     1  0.0000000  1.6038667  3
   1372   2788   2779   2781     1  0.0000000  1.6038667  3
   1373   1372   2788   2779     1  0.0000000  1.6038667  3
   1374   1372   2788   2779     1  0.0000000  1.6038667  3
   1375   2818   2809   2810     1  0.0000000  1.6038667  3
   1375   2818   2809   2811     1  0.0000000  1.6038667  3
   1376   1375   2818   2809     1  0.0000000  1.6038667  3
   1377   1375   2818   2809     1  0.0000000  1.6038667  3
   1380   1381   1393   1394     1  0.0000000  0.6508444  3
   1380   1381   1393   1395     1  0.0000000  0.6508444  3
   1380   1384   1396   1397     1  0.0000000  0.6508444  3
   1380   1384   1396   1398     1  0.0000000  0.6508444  3
   1380   1387   1390   1391     1  0.0000000  0.6508444  3
   1380   1387   1390   1392     1  0.0000000  0.6508444  3
   1381   1380   1384   1385     1  0.0000000  0.6508444  3
   1381   1380   1384   1386     1  0.0000000  0.6508444  3
   1381   1380   1387   1388     1  0.0000000  0.6508444  3
   1381   1380   1387   1389     1  0.0000000  0.6508444  3
   1381   1393   1405   1406     1  0.0000000  0.6508444  3
   1381   1393   1405   1407     1  0.0000000  0.6508444  3
   1382   1381   1380   1384     1  0.0000000  0.6508444  3
   1382   1381   1380   1387     1  0.0000000  0.6508444  3
   1382   1381   1380   1409     1  0.0000000  0.6508444  3
   1382   1381   1393   1405     1  0.0000000  0.6508444  3
   1382   1381   1393   1394     1  0.0000000  0.6508444  3
   1382   1381   1393   1395     1  0.0000000  0.6508444  3
   1383   1381   1380   1384     1  0.0000000  0.6508444  3
   1383   1381   1380   1387     1  0.0000000  0.6508444  3
   1383   1381   1380   1409     1  0.0000000  0.6508444  3
   1383   1381   1393   1405     1  0.0000000  0.6508444  3
   1383   1381   1393   1394     1  0.0000000  0.6508444  3
   1383   1381   1393   1395     1  0.0000000  0.6508444  3
   1384   1380   1387   1388     1  0.0000000  0.6508444  3
   1384   1380   1387   1389     1  0.0000000  0.6508444  3
   1384   1396   1402   1403     1  0.0000000  0.6508444  3
   1384   1396   1402   1404     1  0.0000000  0.6508444  3
   1385   1384   1380   1387     1  0.0000000  0.6508444  3
   1385   1384   1380   1409     1  0.0000000  0.6508444  3
   1385   1384   1396   1402     1  0.0000000  0.6508444  3
   1385   1384   1396   1397     1  0.0000000  0.6508444  3
   1385   1384   1396   1398     1  0.0000000  0.6508444  3
   1386   1384   1380   1387     1  0.0000000  0.6508444  3
   1386   1384   1380   1409     1  0.0000000  0.6508444  3
   1386   1384   1396   1402     1  0.0000000  0.6508444  3
   1386   1384   1396   1397     1  0.0000000  0.6508444  3
   1386   1384   1396   1398     1  0.0000000  0.6508444  3
   1387   1390   1399   1400     1  0.0000000  0.6508444  3
   1387   1390   1399   1401     1  0.0000000  0.6508444  3
   1388   1387   1380   1409     1  0.0000000  0.6508444  3
   1388   1387   1390   1399     1  0.0000000  0.6508444  3
   1388   1387   1390   1391     1  0.0000000  0.6508444  3
   1388   1387   1390   1392     1  0.0000000  0.6508444  3
   1389   1387   1380   1409     1  0.0000000  0.6508444  3
   1389   1387   1390   1399     1  0.0000000  0.6508444  3
   1389   1387   1390   1391     1  0.0000000  0.6508444  3
   1389   1387   1390   1392     1  0.0000000  0.6508444  3
   1390   1387   1380   1409     1  0.0000000  0.6508444  3
   1391   1390   1399   1408     1  0.0000000  1.0460000  1
   1391   1390   1399   1408     1  0.0000000  0.0000000  3
   1391   1390   1399   1400     1  0.0000000  0.6508444  3
   1391   1390   1399   1401     1  0.0000000  0.6508444  3
   1392   1390   1399   1408     1  0.0000000  1.0460000  1
   1392   1390   1399   1408     1  0.0000000  0.0000000  3
   1392   1390   1399   1400     1  0.0000000  0.6508444  3
   1392   1390   1399   1401     1  0.0000000  0.6508444  3
   1393   1381   1380   1409     1  0.0000000  0.6508444  3
   1394   1393   1405   2846     1  0.0000000  1.0460000  1
   1394   1393   1405   2846     1  0.0000000  0.0000000  3
   1394   1393   1405   1406     1  0.0000000  0.6508444  3
   1394   1393   1405   1407     1  0.0000000  0.6508444  3
   1395   1393   1405   2846     1  0.0000000  1.0460000  1
   1395   1393   1405   2846     1  0.0000000  0.0000000  3
   1395   1393   1405   1406     1  0.0000000  0.6508444  3
   1395   1393   1405   1407     1  0.0000000  0.6508444  3
   1396   1384   1380   1409     1  0.0000000  0.6508444  3
   1397   1396   1402   2832     1  0.0000000  1.0460000  1
   1397   1396   1402   2832     1  0.0000000  0.0000000  3
   1397   1396   1402   1403     1  0.0000000  0.6508444  3
   1397   1396   1402   1404     1  0.0000000  0.6508444  3
   1398   1396   1402   2832     1  0.0000000  1.0460000  1
   1398   1396   1402   2832     1  0.0000000  0.0000000  3
   1398   1396   1402   1403     1  0.0000000  0.6508444  3
   1398   1396   1402   1404     1  0.0000000  0.6508444  3
   1402   2832   2826   2827     1  0.0000000  1.6038667  3
   1402   2832   2826   2828     1  0.0000000  1.6038667  3
   1403   1402   2832   2826     1  0.0000000  1.6038667  3
   1404   1402   2832   2826     1  0.0000000  1.6038667  3
   1405   2846   2840   2841     1  0.0000000  1.6038667  3
   1405   2846   2840   2842     1  0.0000000  1.6038667  3
   1406   1405   2846   2840     1  0.0000000  1.6038667  3
   1407   1405   2846   2840     1  0.0000000  1.6038667  3
   1410   1411   1423   1424     1  0.0000000  0.6508444  3
   1410   1411   1423   1425     1  0.0000000  0.6508444  3
   1410   1414   1426   1427     1  0.0000000  0.6508444  3
   1410   1414   1426   1428     1  0.0000000  0.6508444  3
   1410   1417   1420   1421     1  0.0000000  0.6508444  3
   1410   1417   1420   1422     1  0.0000000  0.6508444  3
   1411   1410   1414   1415     1  0.0000000  0.6508444  3
   1411   1410   1414   1416     1  0.0000000  0.6508444  3
   1411   1410   1417   1418     1  0.0000000  0.6508444  3
   1411   1410   1417   1419     1  0.0000000  0.6508444  3
   1411   1423   1435   1436     1  0.0000000  0.6508444  3
   1411   1423   1435   1437     1  0.0000000  0.6508444  3
   1412   1411   1410   1414     1  0.0000000  0.6508444  3
   1412   1411   1410   1417     1  0.0000000  0.6508444  3
   1412   1411   1410   1439     1  0.0000000  0.6508444  3
   1412   1411   1423   1435     1  0.0000000  0.6508444  3
   1412   1411   1423   1424     1  0.0000000  0.6508444  3
   1412   1411   1423   1425     1  0.0000000  0.6508444  3
   1413   1411   1410   1414     1  0.0000000  0.6508444  3
   1413   1411   1410   1417     1  0.0000000  0.6508444  3
   1413   1411   1410   1439     1  0.0000000  0.6508444  3
   1413   1411   1423   1435     1  0.0000000  0.6508444  3
   1413   1411   1423   1424     1  0.0000000  0.6508444  3
   1413   1411   1423   1425     1  0.0000000  0.6508444  3
   1414   1410   1417   1418     1  0.0000000  0.6508444  3
   1414   1410   1417   1419     1  0.0000000  0.6508444  3
   1414   1426   1432   1433     1  0.0000000  0.6508444  3
   1414   1426   1432   1434     1  0.0000000  0.6508444  3
   1415   1414   1410   1417     1  0.0000000  0.6508444  3
   1415   1414   1410   1439     1  0.0000000  0.6508444  3
   1415   1414   1426   1432     1  0.0000000  0.6508444  3
   1415   1414   1426   1427     1  0.0000000  0.6508444  3
   1415   1414   1426   1428     1  0.0000000  0.6508444  3
   1416   1414   1410   1417     1  0.0000000  0.6508444  3
   1416   1414   1410   1439     1  0.0000000  0.6508444  3
   1416   1414   1426   1432     1  0.0000000  0.6508444  3
   1416   1414   1426   1427     1  0.0000000  0.6508444  3
   1416   1414   1426   1428     1  0.0000000  0.6508444  3
   1417   1420   1429   1430     1  0.0000000  0.6508444  3
   1417   1420   1429   1431     1  0.0000000  0.6508444  3
   1418   1417   1410   1439     1  0.0000000  0.6508444  3
   1418   1417   1420   1429     1  0.0000000  0.6508444  3
   1418   1417   1420   1421     1  0.0000000  0.6508444  3
   1418   1417   1420   1422     1  0.0000000  0.6508444  3
   1419   1417   1410   1439     1  0.0000000  0.6508444  3
   1419   1417   1420   1429     1  0.0000000  0.6508444  3
   1419   1417   1420   1421     1  0.0000000  0.6508444  3
   1419   1417   1420   1422     1  0.0000000  0.6508444  3
   1420   1417   1410   1439     1  0.0000000  0.6508444  3
   1421   1420   1429   1438     1  0.0000000  1.0460000  1
   1421   1420   1429   1438     1  0.0000000  0.0000000  3
   1421   1420   1429   1430     1  0.0000000  0.6508444  3
   1421   1420   1429   1431     1  0.0000000  0.6508444  3
   1422   1420   1429   1438     1  0.0000000  1.0460000  1
   1422   1420   1429   1438     1  0.0000000  0.0000000  3
   1422   1420   1429   1430     1  0.0000000  0.6508444  3
   1422   1420   1429   1431     1  0.0000000  0.6508444  3
   1423   1411   1410   1439     1  0.0000000  0.6508444  3
   1424   1423   1435   2874     1  0.0000000  1.0460000  1
   1424   1423   1435   2874     1  0.0000000  0.0000000  3
   1424   1423   1435   1436     1  0.0000000  0.6508444  3
   1424   1423   1435   1437     1  0.0000000  0.6508444  3
   1425   1423   1435   2874     1  0.0000000  1.0460000  1
   1425   1423   1435   2874     1  0.0000000  0.0000000  3
   1425   1423   1435   1436     1  0.0000000  0.6508444  3
   1425   1423   1435   1437     1  0.0000000  0.6508444  3
   1426   1414   1410   1439     1  0.0000000  0.6508444  3
   1427   1426   1432   2860     1  0.0000000  1.0460000  1
   1427   1426   1432   2860     1  0.0000000  0.0000000  3
   1427   1426   1432   1433     1  0.0000000  0.6508444  3
   1427   1426   1432   1434     1  0.0000000  0.6508444  3
   1428   1426   1432   2860     1  0.0000000  1.0460000  1
   1428   1426   1432   2860     1  0.0000000  0.0000000  3
   1428   1426   1432   1433     1  0.0000000  0.6508444  3
   1428   1426   1432   1434     1  0.0000000  0.6508444  3
   1432   2860   2854   2855     1  0.0000000  1.6038667  3
   1432   2860   2854   2856     1  0.0000000  1.6038667  3
   1433   1432   2860   2854     1  0.0000000  1.6038667  3
   1434   1432   2860   2854     1  0.0000000  1.6038667  3
   1435   2874   2868   2869     1  0.0000000  1.6038667  3
   1435   2874   2868   2870     1  0.0000000  1.6038667  3
   1436   1435   2874   2868     1  0.0000000  1.6038667  3
   1437   1435   2874   2868     1  0.0000000  1.6038667  3
   1440   1441   1453   1454     1  0.0000000  0.6508444  3
   1440   1441   1453   1455     1  0.0000000  0.6508444  3
   1440   1444   1456   1457     1  0.0000000  0.6508444  3
   1440   1444   1456   1458     1  0.0000000  0.6508444  3
   1440   1447   1450   1451     1  0.0000000  0.6508444  3
   1440   1447   1450   1452     1  0.0000000  0.6508444  3
   1441   1440   1444   1445     1  0.0000000  0.6508444  3
   1441   1440   1444   1446     1  0.0000000  0.6508444  3
   1441   1440   1447   1448     1  0.0000000  0.6508444  3
   1441   1440   1447   1449     1  0.0000000  0.6508444  3
   1441   1453   1465   1466     1  0.0000000  0.6508444  3
   1441   1453   1465   1467     1  0.0000000  0.6508444  3
   1442   1441   1440   1444     1  0.0000000  0.6508444  3
   1442   1441   1440   1447     1  0.0000000  0.6508444  3
   1442   1441   1440   1469     1  0.0000000  0.6508444  3
   1442   1441   1453   1465     1  0.0000000  0.6508444  3
   1442   1441   1453   1454     1  0.0000000  0.6508444  3
   1442   1441   1453   1455     1  0.0000000  0.6508444  3
   1443   1441   1440   1444     1  0.0000000  0.6508444  3
   1443   1441   1440   1447     1  0.0000000  0.6508444  3
   1443   1441   1440   1469     1  0.0000000  0.6508444  3
   1443   1441   1453   1465     1  0.0000000  0.6508444  3
   1443   1441   1453   1454     1  0.0000000  0.6508444  3
   1443   1441   1453   1455     1  0.0000000  0.6508444  3
   1444   1440   1447   1448     1  0.0000000  0.6508444  3
   1444   1440   1447   1449     1  0.0000000  0.6508444  3
   1444   1456   1462   1463     1  0.0000000  0.6508444  3
   1444   1456   1462   1464     1  0.0000000  0.6508444  3
   1445   1444   1440   1447     1  0.0000000  0.6508444  3
   1445   1444   1440   1469     1  0.0000000  0.6508444  3
   1445   1444   1456   1462     1  0.0000000  0.6508444  3
   1445   1444   1456   1457     1  0.0000000  0.6508444  3
   1445   1444   1456   1458     1  0.0000000  0.6508444  3
   1446   1444   1440   1447     1  0.0000000  0.6508444  3
   1446   1444   1440   1469     1  0.0000000  0.6508444  3
   1446   1444   1456   1462     1  0.0000000  0.6508444  3
   1446   1444   1456   1457     1  0.0000000  0.6508444  3
   1446   1444   1456   1458     1  0.0000000  0.6508444  3
   1447   1450   1459   1460     1  0.0000000  0.6508444  3
   1447   1450   1459   1461     1  0.0000000  0.6508444  3
   1448   1447   1440   1469     1  0.0000000  0.6508444  3
   1448   1447   1450   1459     1  0.0000000  0.6508444  3
   1448   1447   1450   1451     1  0.0000000  0.6508444  3
   1448   1447   1450   1452     1  0.0000000  0.6508444  3
   1449   1447   1440   1469     1  0.0000000  0.6508444  3
   1449   1447   1450   1459     1  0.0000000  0.6508444  3
   1449   1447   1450   1451     1  0.0000000  0.6508444  3
   1449   1447   1450   1452     1  0.0000000  0.6508444  3
   1450   1447   1440   1469     1  0.0000000  0.6508444  3
   1451   1450   1459   1468     1  0.0000000  1.0460000  1
   1451   1450   1459   1468     1  0.0000000  0.0000000  3
   1451   1450   1459   1460     1  0.0000000  0.6508444  3
   1451   1450   1459   1461     1  0.0000000  0.6508444  3
   1452   1450   1459   1468     1  0.0000000  1.0460000  1
   1452   1450   1459   1468     1  0.0000000  0.0000000  3
   1452   1450   1459   1460     1  0.0000000  0.6508444  3
   1452   1450   1459   1461     1  0.0000000  0.6508444  3
   1453   1441   1440   1469     1  0.0000000  0.6508444  3
   1454   1453   1465   2902     1  0.0000000  1.0460000  1
   1454   1453   1465   2902     1  0.0000000  0.0000000  3
   1454   1453   1465   1466     1  0.0000000  0.6508444  3
   1454   1453   1465   1467     1  0.0000000  0.6508444  3
   1455   1453   1465   2902     1  0.0000000  1.0460000  1
   1455   1453   1465   2902     1  0.0000000  0.0000000  3
   1455   1453   1465   1466     1  0.0000000  0.6508444  3
   1455   1453   1465   1467     1  0.0000000  0.6508444  3
   1456   1444   1440   1469     1  0.0000000  0.6508444  3
   1457   1456   1462   2888     1  0.0000000  1.0460000  1
   1457   1456   1462   2888     1  0.0000000  0.0000000  3
   1457   1456   1462   1463     1  0.0000000  0.6508444  3
   1457   1456   1462   1464     1  0.0000000  0.6508444  3
   1458   1456   1462   2888     1  0.0000000  1.0460000  1
   1458   1456   1462   2888     1  0.0000000  0.0000000  3
   1458   1456   1462   1463     1  0.0000000  0.6508444  3
   1458   1456   1462   1464     1  0.0000000  0.6508444  3
   1462   2888   2882   2883     1  0.0000000  1.6038667  3
   1462   2888   2882   2884     1  0.0000000  1.6038667  3
   1463   1462   2888   2882     1  0.0000000  1.6038667  3
   1464   1462   2888   2882     1  0.0000000  1.6038667  3
   1465   2902   2896   2897     1  0.0000000  1.6038667  3
   1465   2902   2896   2898     1  0.0000000  1.6038667  3
   1466   1465   2902   2896     1  0.0000000  1.6038667  3
   1467   1465   2902   2896     1  0.0000000  1.6038667  3
   1470   1471   1483   1484     1  0.0000000  0.6508444  3
   1470   1471   1483   1485     1  0.0000000  0.6508444  3
   1470   1474   1486   1487     1  0.0000000  0.6508444  3
   1470   1474   1486   1488     1  0.0000000  0.6508444  3
   1470   1477   1480   1481     1  0.0000000  0.6508444  3
   1470   1477   1480   1482     1  0.0000000  0.6508444  3
   1471   1470   1474   1475     1  0.0000000  0.6508444  3
   1471   1470   1474   1476     1  0.0000000  0.6508444  3
   1471   1470   1477   1478     1  0.0000000  0.6508444  3
   1471   1470   1477   1479     1  0.0000000  0.6508444  3
   1471   1483   1495   1496     1  0.0000000  0.6508444  3
   1471   1483   1495   1497     1  0.0000000  0.6508444  3
   1472   1471   1470   1474     1  0.0000000  0.6508444  3
   1472   1471   1470   1477     1  0.0000000  0.6508444  3
   1472   1471   1470   1499     1  0.0000000  0.6508444  3
   1472   1471   1483   1495     1  0.0000000  0.6508444  3
   1472   1471   1483   1484     1  0.0000000  0.6508444  3
   1472   1471   1483   1485     1  0.0000000  0.6508444  3
   1473   1471   1470   1474     1  0.0000000  0.6508444  3
   1473   1471   1470   1477     1  0.0000000  0.6508444  3
   1473   1471   1470   1499     1  0.0000000  0.6508444  3
   1473   1471   1483   1495     1  0.0000000  0.6508444  3
   1473   1471   1483   1484     1  0.0000000  0.6508444  3
   1473   1471   1483   1485     1  0.0000000  0.6508444  3
   1474   1470   1477   1478     1  0.0000000  0.6508444  3
   1474   1470   1477   1479     1  0.0000000  0.6508444  3
   1474   1486   1492   1493     1  0.0000000  0.6508444  3
   1474   1486   1492   1494     1  0.0000000  0.6508444  3
   1475   1474   1470   1477     1  0.0000000  0.6508444  3
   1475   1474   1470   1499     1  0.0000000  0.6508444  3
   1475   1474   1486   1492     1  0.0000000  0.6508444  3
   1475   1474   1486   1487     1  0.0000000  0.6508444  3
   1475   1474   1486   1488     1  0.0000000  0.6508444  3
   1476   1474   1470   1477     1  0.0000000  0.6508444  3
   1476   1474   1470   1499     1  0.0000000  0.6508444  3
   1476   1474   1486   1492     1  0.0000000  0.6508444  3
   1476   1474   1486   1487     1  0.0000000  0.6508444  3
   1476   1474   1486   1488     1  0.0000000  0.6508444  3
   1477   1480   1489   1490     1  0.0000000  0.6508444  3
   1477   1480   1489   1491     1  0.0000000  0.6508444  3
   1478   1477   1470   1499     1  0.0000000  0.6508444  3
   1478   1477   1480   1489     1  0.0000000  0.6508444  3
   1478   1477   1480   1481     1  0.0000000  0.6508444  3
   1478   1477   1480   1482     1  0.0000000  0.6508444  3
   1479   1477   1470   1499     1  0.0000000  0.6508444  3
   1479   1477   1480   1489     1  0.0000000  0.6508444  3
   1479   1477   1480   1481     1  0.0000000  0.6508444  3
   1479   1477   1480   1482     1  0.0000000  0.6508444  3
   1480   1477   1470   1499     1  0.0000000  0.6508444  3
   1481   1480   1489   1498     1  0.0000000  1.0460000  1
   1481   1480   1489   1498     1  0.0000000  0.0000000  3
   1481   1480   1489   1490     1  0.0000000  0.6508444  3
   1481   1480   1489   1491     1  0.0000000  0.6508444  3
   1482   1480   1489   1498     1  0.0000000  1.0460000  1
   1482   1480   1489   1498     1  0.0000000  0.0000000  3
   1482   1480   1489   1490     1  0.0000000  0.6508444  3
   1482   1480   1489   1491     1  0.0000000  0.6508444  3
   1483   1471   1470   1499     1  0.0000000  0.6508444  3
   1484   1483   1495   2930     1  0.0000000  1.0460000  1
   1484   1483   1495   2930     1  0.0000000  0.0000000  3
   1484   1483   1495   1496     1  0.0000000  0.6508444  3
   1484   1483   1495   1497     1  0.0000000  0.6508444  3
   1485   1483   1495   2930     1  0.0000000  1.0460000  1
   1485   1483   1495   2930     1  0.0000000  0.0000000  3
   1485   1483   1495   1496     1  0.0000000  0.6508444  3
   1485   1483   1495   1497     1  0.0000000  0.6508444  3
   1486   1474   1470   1499     1  0.0000000  0.6508444  3
   1487   1486   1492   2916     1  0.0000000  1.0460000  1
   1487   1486   1492   2916     1  0.0000000  0.0000000  3
   1487   1486   1492   1493     1  0.0000000  0.6508444  3
   1487   1486   1492   1494     1  0.0000000  0.6508444  3
   1488   1486   1492   2916     1  0.0000000  1.0460000  1
   1488   1486   1492   2916     1  0.0000000  0.0000000  3
   1488   1486   1492   1493     1  0.0000000  0.6508444  3
   1488   1486   1492   1494     1  0.0000000  0.6508444  3
   1492   2916   2910   2911     1  0.0000000  1.6038667  3
   1492   2916   2910   2912     1  0.0000000  1.6038667  3
   1493   1492   2916   2910     1  0.0000000  1.6038667  3
   1494   1492   2916   2910     1  0.0000000  1.6038667  3
   1495   2930   2924   2925     1  0.0000000  1.6038667  3
   1495   2930   2924   2926     1  0.0000000  1.6038667  3
   1496   1495   2930   2924     1  0.0000000  1.6038667  3
   1497   1495   2930   2924     1  0.0000000  1.6038667  3
   1500   1501   1513   1514     1  0.0000000  0.6508444  3
   1500   1501   1513   1515     1  0.0000000  0.6508444  3
   1500   1504   1516   1517     1  0.0000000  0.6508444  3
   1500   1504   1516   1518     1  0.0000000  0.6508444  3
   1500   1507   1510   1511     1  0.0000000  0.6508444  3
   1500   1507   1510   1512     1  0.0000000  0.6508444  3
   1501   1500   1504   1505     1  0.0000000  0.6508444  3
   1501   1500   1504   1506     1  0.0000000  0.6508444  3
   1501   1500   1507   1508     1  0.0000000  0.6508444  3
   1501   1500   1507   1509     1  0.0000000  0.6508444  3
   1501   1513   1525   1526     1  0.0000000  0.6508444  3
   1501   1513   1525   1527     1  0.0000000  0.6508444  3
   1502   1501   1500   1504     1  0.0000000  0.6508444  3
   1502   1501   1500   1507     1  0.0000000  0.6508444  3
   1502   1501   1500   1529     1  0.0000000  0.6508444  3
   1502   1501   1513   1525     1  0.0000000  0.6508444  3
   1502   1501   1513   1514     1  0.0000000  0.6508444  3
   1502   1501   1513   1515     1  0.0000000  0.6508444  3
   1503   1501   1500   1504     1  0.0000000  0.6508444  3
   1503   1501   1500   1507     1  0.0000000  0.6508444  3
   1503   1501   1500   1529     1  0.0000000  0.6508444  3
   1503   1501   1513   1525     1  0.0000000  0.6508444  3
   1503   1501   1513   1514     1  0.0000000  0.6508444  3
   1503   1501   1513   1515     1  0.0000000  0.6508444  3
   1504   1500   1507   1508     1  0.0000000  0.6508444  3
   1504   1500   1507   1509     1  0.0000000  0.6508444  3
   1504   1516   1522   1523     1  0.0000000  0.6508444  3
   1504   1516   1522   1524     1  0.0000000  0.6508444  3
   1505   1504   1500   1507     1  0.0000000  0.6508444  3
   1505   1504   1500   1529     1  0.0000000  0.6508444  3
   1505   1504   1516   1522     1  0.0000000  0.6508444  3
   1505   1504   1516   1517     1  0.0000000  0.6508444  3
   1505   1504   1516   1518     1  0.0000000  0.6508444  3
   1506   1504   1500   1507     1  0.0000000  0.6508444  3
   1506   1504   1500   1529     1  0.0000000  0.6508444  3
   1506   1504   1516   1522     1  0.0000000  0.6508444  3
   1506   1504   1516   1517     1  0.0000000  0.6508444  3
   1506   1504   1516   1518     1  0.0000000  0.6508444  3
   1507   1510   1519   1520     1  0.0000000  0.6508444  3
   1507   1510   1519   1521     1  0.0000000  0.6508444  3
   1508   1507   1500   1529     1  0.0000000  0.6508444  3
   1508   1507   1510   1519     1  0.0000000  0.6508444  3
   1508   1507   1510   1511     1  0.0000000  0.6508444  3
   1508   1507   1510   1512     1  0.0000000  0.6508444  3
   1509   1507   1500   1529     1  0.0000000  0.6508444  3
   1509   1507   1510   1519     1  0.0000000  0.6508444  3
   1509   1507   1510   1511     1  0.0000000  0.6508444  3
   1509   1507   1510   1512     1  0.0000000  0.6508444  3
   1510   1507   1500   1529     1  0.0000000  0.6508444  3
   1511   1510   1519   1528     1  0.0000000  1.0460000  1
   1511   1510   1519   1528     1  0.0000000  0.0000000  3
   1511   1510   1519   1520     1  0.0000000  0.6508444  3
   1511   1510   1519   1521     1  0.0000000  0.6508444  3
   1512   1510   1519   1528     1  0.0000000  1.0460000  1
   1512   1510   1519   1528     1  0.0000000  0.0000000  3
   1512   1510   1519   1520     1  0.0000000  0.6508444  3
   1512   1510   1519   1521     1  0.0000000  0.6508444  3
   1513   1501   1500   1529     1  0.0000000  0.6508444  3
   1514   1513   1525   2958     1  0.0000000  1.0460000  1
   1514   1513   1525   2958     1  0.0000000  0.0000000  3
   1514   1513   1525   1526     1  0.0000000  0.6508444  3
   1514   1513   1525   1527     1  0.0000000  0.6508444  3
   1515   1513   1525   2958     1  0.0000000  1.0460000  1
   1515   1513   1525   2958     1  0.0000000  0.0000000  3
   1515   1513   1525   1526     1  0.0000000  0.6508444  3
   1515   1513   1525   1527     1  0.0000000  0.6508444  3
   1516   1504   1500   1529     1  0.0000000  0.6508444  3
   1517   1516   1522   2944     1  0.0000000  1.0460000  1
   1517   1516   1522   2944     1  0.0000000  0.0000000  3
   1517   1516   1522   1523     1  0.0000000  0.6508444  3
   1517   1516   1522   1524     1  0.0000000  0.6508444  3
   1518   1516   1522   2944     1  0.0000000  1.0460000  1
   1518   1516   1522   2944     1  0.0000000  0.0000000  3
   1518   1516   1522   1523     1  0.0000000  0.6508444  3
   1518   1516   1522   1524     1  0.0000000  0.6508444  3
   1522   2944   2938   2939     1  0.0000000  1.6038667  3
   1522   2944   2938   2940     1  0.0000000  1.6038667  3
   1523   1522   2944   2938     1  0.0000000  1.6038667  3
   1524   1522   2944   2938     1  0.0000000  1.6038667  3
   1525   2958   2952   2953     1  0.0000000  1.6038667  3
   1525   2958   2952   2954     1  0.0000000  1.6038667  3
   1526   1525   2958   2952     1  0.0000000  1.6038667  3
   1527   1525   2958   2952     1  0.0000000  1.6038667  3
   1530   1531   1543   1544     1  0.0000000  0.6508444  3
   1530   1531   1543   1545     1  0.0000000  0.6508444  3
   1530   1534   1546   1547     1  0.0000000  0.6508444  3
   1530   1534   1546   1548     1  0.0000000  0.6508444  3
   1530   1537   1540   1541     1  0.0000000  0.6508444  3
   1530   1537   1540   1542     1  0.0000000  0.6508444  3
   1531   1530   1534   1535     1  0.0000000  0.6508444  3
   1531   1530   1534   1536     1  0.0000000  0.6508444  3
   1531   1530   1537   1538     1  0.0000000  0.6508444  3
   1531   1530   1537   1539     1  0.0000000  0.6508444  3
   1531   1543   1555   1556     1  0.0000000  0.6508444  3
   1531   1543   1555   1557     1  0.0000000  0.6508444  3
   1532   1531   1530   1534     1  0.0000000  0.6508444  3
   1532   1531   1530   1537     1  0.0000000  0.6508444  3
   1532   1531   1530   1559     1  0.0000000  0.6508444  3
   1532   1531   1543   1555     1  0.0000000  0.6508444  3
   1532   1531   1543   1544     1  0.0000000  0.6508444  3
   1532   1531   1543   1545     1  0.0000000  0.6508444  3
   1533   1531   1530   1534     1  0.0000000  0.6508444  3
   1533   1531   1530   1537     1  0.0000000  0.6508444  3
   1533   1531   1530   1559     1  0.0000000  0.6508444  3
   1533   1531   1543   1555     1  0.0000000  0.6508444  3
   1533   1531   1543   1544     1  0.0000000  0.6508444  3
   1533   1531   1543   1545     1  0.0000000  0.6508444  3
   1534   1530   1537   1538     1  0.0000000  0.6508444  3
   1534   1530   1537   1539     1  0.0000000  0.6508444  3
   1534   1546   1552   1553     1  0.0000000  0.6508444  3
   1534   1546   1552   1554     1  0.0000000  0.6508444  3
   1535   1534   1530   1537     1  0.0000000  0.6508444  3
   1535   1534   1530   1559     1  0.0000000  0.6508444  3
   1535   1534   1546   1552     1  0.0000000  0.6508444  3
   1535   1534   1546   1547     1  0.0000000  0.6508444  3
   1535   1534   1546   1548     1  0.0000000  0.6508444  3
   1536   1534   1530   1537     1  0.0000000  0.6508444  3
   1536   1534   1530   1559     1  0.0000000  0.6508444  3
   1536   1534   1546   1552     1  0.0000000  0.6508444  3
   1536   1534   1546   1547     1  0.0000000  0.6508444  3
   1536   1534   1546   1548     1  0.0000000  0.6508444  3
   1537   1540   1549   1550     1  0.0000000  0.6508444  3
   1537   1540   1549   1551     1  0.0000000  0.6508444  3
   1538   1537   1530   1559     1  0.0000000  0.6508444  3
   1538   1537   1540   1549     1  0.0000000  0.6508444  3
   1538   1537   1540   1541     1  0.0000000  0.6508444  3
   1538   1537   1540   1542     1  0.0000000  0.6508444  3
   1539   1537   1530   1559     1  0.0000000  0.6508444  3
   1539   1537   1540   1549     1  0.0000000  0.6508444  3
   1539   1537   1540   1541     1  0.0000000  0.6508444  3
   1539   1537   1540   1542     1  0.0000000  0.6508444  3
   1540   1537   1530   1559     1  0.0000000  0.6508444  3
   1541   1540   1549   1558     1  0.0000000  1.0460000  1
   1541   1540   1549   1558     1  0.0000000  0.0000000  3
   1541   1540   1549   1550     1  0.0000000  0.6508444  3
   1541   1540   1549   1551     1  0.0000000  0.6508444  3
   1542   1540   1549   1558     1  0.0000000  1.0460000  1
   1542   1540   1549   1558     1  0.0000000  0.0000000  3
   1542   1540   1549   1550     1  0.0000000  0.6508444  3
   1542   1540   1549   1551     1  0.0000000  0.6508444  3
   1543   1531   1530   1559     1  0.0000000  0.6508444  3
   1544   1543   1555   2986     1  0.0000000  1.0460000  1
   1544   1543   1555   2986     1  0.0000000  0.0000000  3
   1544   1543   1555   1556     1  0.0000000  0.6508444  3
   1544   1543   1555   1557     1  0.0000000  0.6508444  3
   1545   1543   1555   2986     1  0.0000000  1.0460000  1
   1545   1543   1555   2986     1  0.0000000  0.0000000  3
   1545   1543   1555   1556     1  0.0000000  0.6508444  3
   1545   1543   1555   1557     1  0.0000000  0.6508444  3
   1546   1534   1530   1559     1  0.0000000  0.6508444  3
   1547   1546   1552   2972     1  0.0000000  1.0460000  1
   1547   1546   1552   2972     1  0.0000000  0.0000000  3
   1547   1546   1552   1553     1  0.0000000  0.6508444  3
   1547   1546   1552   1554     1  0.0000000  0.6508444  3
   1548   1546   1552   2972     1  0.0000000  1.0460000  1
   1548   1546   1552   2972     1  0.0000000  0.0000000  3
   1548   1546   1552   1553     1  0.0000000  0.6508444  3
   1548   1546   1552   1554     1  0.0000000  0.6508444  3
   1552   2972   2966   2967     1  0.0000000  1.6038667  3
   1552   2972   2966   2968     1  0.0000000  1.6038667  3
   1553   1552   2972   2966     1  0.0000000  1.6038667  3
   1554   1552   2972   2966     1  0.0000000  1.6038667  3
   1555   2986   2980   2981     1  0.0000000  1.6038667  3
   1555   2986   2980   2982     1  0.0000000  1.6038667  3
   1556   1555   2986   2980     1  0.0000000  1.6038667  3
   1557   1555   2986   2980     1  0.0000000  1.6038667  3
   1560   1561   1573   1574     1  0.0000000  0.6508444  3
   1560   1561   1573   1575     1  0.0000000  0.6508444  3
   1560   1564   1576   1577     1  0.0000000  0.6508444  3
   1560   1564   1576   1578     1  0.0000000  0.6508444  3
   1560   1567   1570   1571     1  0.0000000  0.6508444  3
   1560   1567   1570   1572     1  0.0000000  0.6508444  3
   1561   1560   1564   1565     1  0.0000000  0.6508444  3
   1561   1560   1564   1566     1  0.0000000  0.6508444  3
   1561   1560   1567   1568     1  0.0000000  0.6508444  3
   1561   1560   1567   1569     1  0.0000000  0.6508444  3
   1561   1573   1585   1586     1  0.0000000  0.6508444  3
   1561   1573   1585   1587     1  0.0000000  0.6508444  3
   1562   1561   1560   1564     1  0.0000000  0.6508444  3
   1562   1561   1560   1567     1  0.0000000  0.6508444  3
   1562   1561   1560   1589     1  0.0000000  0.6508444  3
   1562   1561   1573   1585     1  0.0000000  0.6508444  3
   1562   1561   1573   1574     1  0.0000000  0.6508444  3
   1562   1561   1573   1575     1  0.0000000  0.6508444  3
   1563   1561   1560   1564     1  0.0000000  0.6508444  3
   1563   1561   1560   1567     1  0.0000000  0.6508444  3
   1563   1561   1560   1589     1  0.0000000  0.6508444  3
   1563   1561   1573   1585     1  0.0000000  0.6508444  3
   1563   1561   1573   1574     1  0.0000000  0.6508444  3
   1563   1561   1573   1575     1  0.0000000  0.6508444  3
   1564   1560   1567   1568     1  0.0000000  0.6508444  3
   1564   1560   1567   1569     1  0.0000000  0.6508444  3
   1564   1576   1582   1583     1  0.0000000  0.6508444  3
   1564   1576   1582   1584     1  0.0000000  0.6508444  3
   1565   1564   1560   1567     1  0.0000000  0.6508444  3
   1565   1564   1560   1589     1  0.0000000  0.6508444  3
   1565   1564   1576   1582     1  0.0000000  0.6508444  3
   1565   1564   1576   1577     1  0.0000000  0.6508444  3
   1565   1564   1576   1578     1  0.0000000  0.6508444  3
   1566   1564   1560   1567     1  0.0000000  0.6508444  3
   1566   1564   1560   1589     1  0.0000000  0.6508444  3
   1566   1564   1576   1582     1  0.0000000  0.6508444  3
   1566   1564   1576   1577     1  0.0000000  0.6508444  3
   1566   1564   1576   1578     1  0.0000000  0.6508444  3
   1567   1570   1579   1580     1  0.0000000  0.6508444  3
   1567   1570   1579   1581     1  0.0000000  0.6508444  3
   1568   1567   1560   1589     1  0.0000000  0.6508444  3
   1568   1567   1570   1579     1  0.0000000  0.6508444  3
   1568   1567   1570   1571     1  0.0000000  0.6508444  3
   1568   1567   1570   1572     1  0.0000000  0.6508444  3
   1569   1567   1560   1589     1  0.0000000  0.6508444  3
   1569   1567   1570   1579     1  0.0000000  0.6508444  3
   1569   1567   1570   1571     1  0.0000000  0.6508444  3
   1569   1567   1570   1572     1  0.0000000  0.6508444  3
   1570   1567   1560   1589     1  0.0000000  0.6508444  3
   1571   1570   1579   1588     1  0.0000000  1.0460000  1
   1571   1570   1579   1588     1  0.0000000  0.0000000  3
   1571   1570   1579   1580     1  0.0000000  0.6508444  3
   1571   1570   1579   1581     1  0.0000000  0.6508444  3
   1572   1570   1579   1588     1  0.0000000  1.0460000  1
   1572   1570   1579   1588     1  0.0000000  0.0000000  3
   1572   1570   1579   1580     1  0.0000000  0.6508444  3
   1572   1570   1579   1581     1  0.0000000  0.6508444  3
   1573   1561   1560   1589     1  0.0000000  0.6508444  3
   1574   1573   1585   3014     1  0.0000000  1.0460000  1
   1574   1573   1585   3014     1  0.0000000  0.0000000  3
   1574   1573   1585   1586     1  0.0000000  0.6508444  3
   1574   1573   1585   1587     1  0.0000000  0.6508444  3
   1575   1573   1585   3014     1  0.0000000  1.0460000  1
   1575   1573   1585   3014     1  0.0000000  0.0000000  3
   1575   1573   1585   1586     1  0.0000000  0.6508444  3
   1575   1573   1585   1587     1  0.0000000  0.6508444  3
   1576   1564   1560   1589     1  0.0000000  0.6508444  3
   1577   1576   1582   3000     1  0.0000000  1.0460000  1
   1577   1576   1582   3000     1  0.0000000  0.0000000  3
   1577   1576   1582   1583     1  0.0000000  0.6508444  3
   1577   1576   1582   1584     1  0.0000000  0.6508444  3
   1578   1576   1582   3000     1  0.0000000  1.0460000  1
   1578   1576   1582   3000     1  0.0000000  0.0000000  3
   1578   1576   1582   1583     1  0.0000000  0.6508444  3
   1578   1576   1582   1584     1  0.0000000  0.6508444  3
   1582   3000   2994   2995     1  0.0000000  1.6038667  3
   1582   3000   2994   2996     1  0.0000000  1.6038667  3
   1583   1582   3000   2994     1  0.0000000  1.6038667  3
   1584   1582   3000   2994     1  0.0000000  1.6038667  3
   1585   3014   3008   3009     1  0.0000000  1.6038667  3
   1585   3014   3008   3010     1  0.0000000  1.6038667  3
   1586   1585   3014   3008     1  0.0000000  1.6038667  3
   1587   1585   3014   3008     1  0.0000000  1.6038667  3
   1590   1591   1603   1604     1  0.0000000  0.6508444  3
   1590   1591   1603   1605     1  0.0000000  0.6508444  3
   1590   1594   1606   1607     1  0.0000000  0.6508444  3
   1590   1594   1606   1608     1  0.0000000  0.6508444  3
   1590   1597   1600   1601     1  0.0000000  0.6508444  3
   1590   1597   1600   1602     1  0.0000000  0.6508444  3
   1591   1590   1594   1595     1  0.0000000  0.6508444  3
   1591   1590   1594   1596     1  0.0000000  0.6508444  3
   1591   1590   1597   1598     1  0.0000000  0.6508444  3
   1591   1590   1597   1599     1  0.0000000  0.6508444  3
   1591   1603   1615   1616     1  0.0000000  0.6508444  3
   1591   1603   1615   1617     1  0.0000000  0.6508444  3
   1592   1591   1590   1594     1  0.0000000  0.6508444  3
   1592   1591   1590   1597     1  0.0000000  0.6508444  3
   1592   1591   1590   1619     1  0.0000000  0.6508444  3
   1592   1591   1603   1615     1  0.0000000  0.6508444  3
   1592   1591   1603   1604     1  0.0000000  0.6508444  3
   1592   1591   1603   1605     1  0.0000000  0.6508444  3
   1593   1591   1590   1594     1  0.0000000  0.6508444  3
   1593   1591   1590   1597     1  0.0000000  0.6508444  3
   1593   1591   1590   1619     1  0.0000000  0.6508444  3
   1593   1591   1603   1615     1  0.0000000  0.6508444  3
   1593   1591   1603   1604     1  0.0000000  0.6508444  3
   1593   1591   1603   1605     1  0.0000000  0.6508444  3
   1594   1590   1597   1598     1  0.0000000  0.6508444  3
   1594   1590   1597   1599     1  0.0000000  0.6508444  3
   1594   1606   1612   1613     1  0.0000000  0.6508444  3
   1594   1606   1612   1614     1  0.0000000  0.6508444  3
   1595   1594   1590   1597     1  0.0000000  0.6508444  3
   1595   1594   1590   1619     1  0.0000000  0.6508444  3
   1595   1594   1606   1612     1  0.0000000  0.6508444  3
   1595   1594   1606   1607     1  0.0000000  0.6508444  3
   1595   1594   1606   1608     1  0.0000000  0.6508444  3
   1596   1594   1590   1597     1  0.0000000  0.6508444  3
   1596   1594   1590   1619     1  0.0000000  0.6508444  3
   1596   1594   1606   1612     1  0.0000000  0.6508444  3
   1596   1594   1606   1607     1  0.0000000  0.6508444  3
   1596   1594   1606   1608     1  0.0000000  0.6508444  3
   1597   1600   1609   1610     1  0.0000000  0.6508444  3
   1597   1600   1609   1611     1  0.0000000  0.6508444  3
   1598   1597   1590   1619     1  0.0000000  0.6508444  3
   1598   1597   1600   1609     1  0.0000000  0.6508444  3
   1598   1597   1600   1601     1  0.0000000  0.6508444  3
   1598   1597   1600   1602     1  0.0000000  0.6508444  3
   1599   1597   1590   1619     1  0.0000000  0.6508444  3
   1599   1597   1600   1609     1  0.0000000  0.6508444  3
   1599   1597   1600   1601     1  0.0000000  0.6508444  3
   1599   1597   1600   1602     1  0.0000000  0.6508444  3
   1600   1597   1590   1619     1  0.0000000  0.6508444  3
   1601   1600   1609   1618     1  0.0000000  1.0460000  1
   1601   1600   1609   1618     1  0.0000000  0.0000000  3
   1601   1600   1609   1610     1  0.0000000  0.6508444  3
   1601   1600   1609   1611     1  0.0000000  0.6508444  3
   1602   1600   1609   1618     1  0.0000000  1.0460000  1
   1602   1600   1609   1618     1  0.0000000  0.0000000  3
   1602   1600   1609   1610     1  0.0000000  0.6508444  3
   1602   1600   1609   1611     1  0.0000000  0.6508444  3
   1603   1591   1590   1619     1  0.0000000  0.6508444  3
   1604   1603   1615   3042     1  0.0000000  1.0460000  1
   1604   1603   1615   3042     1  0.0000000  0.0000000  3
   1604   1603   1615   1616     1  0.0000000  0.6508444  3
   1604   1603   1615   1617     1  0.0000000  0.6508444  3
   1605   1603   1615   3042     1  0.0000000  1.0460000  1
   1605   1603   1615   3042     1  0.0000000  0.0000000  3
   1605   1603   1615   1616     1  0.0000000  0.6508444  3
   1605   1603   1615   1617     1  0.0000000  0.6508444  3
   1606   1594   1590   1619     1  0.0000000  0.6508444  3
   1607   1606   1612   3028     1  0.0000000  1.0460000  1
   1607   1606   1612   3028     1  0.0000000  0.0000000  3
   1607   1606   1612   1613     1  0.0000000  0.6508444  3
   1607   1606   1612   1614     1  0.0000000  0.6508444  3
   1608   1606   1612   3028     1  0.0000000  1.0460000  1
   1608   1606   1612   3028     1  0.0000000  0.0000000  3
   1608   1606   1612   1613     1  0.0000000  0.6508444  3
   1608   1606   1612   1614     1  0.0000000  0.6508444  3
   1612   3028   3022   3023     1  0.0000000  1.6038667  3
   1612   3028   3022   3024     1  0.0000000  1.6038667  3
   1613   1612   3028   3022     1  0.0000000  1.6038667  3
   1614   1612   3028   3022     1  0.0000000  1.6038667  3
   1615   3042   3036   3037     1  0.0000000  1.6038667  3
   1615   3042   3036   3038     1  0.0000000  1.6038667  3
   1616   1615   3042   3036     1  0.0000000  1.6038667  3
   1617   1615   3042   3036     1  0.0000000  1.6038667  3
   1620   1621   1633   1634     1  0.0000000  0.6508444  3
   1620   1621   1633   1635     1  0.0000000  0.6508444  3
   1620   1624   1636   1637     1  0.0000000  0.6508444  3
   1620   1624   1636   1638     1  0.0000000  0.6508444  3
   1620   1627   1630   1631     1  0.0000000  0.6508444  3
   1620   1627   1630   1632     1  0.0000000  0.6508444  3
   1621   1620   1624   1625     1  0.0000000  0.6508444  3
   1621   1620   1624   1626     1  0.0000000  0.6508444  3
   1621   1620   1627   1628     1  0.0000000  0.6508444  3
   1621   1620   1627   1629     1  0.0000000  0.6508444  3
   1621   1633   1645   1646     1  0.0000000  0.6508444  3
   1621   1633   1645   1647     1  0.0000000  0.6508444  3
   1622   1621   1620   1624     1  0.0000000  0.6508444  3
   1622   1621   1620   1627     1  0.0000000  0.6508444  3
   1622   1621   1620   1649     1  0.0000000  0.6508444  3
   1622   1621   1633   1645     1  0.0000000  0.6508444  3
   1622   1621   1633   1634     1  0.0000000  0.6508444  3
   1622   1621   1633   1635     1  0.0000000  0.6508444  3
   1623   1621   1620   1624     1  0.0000000  0.6508444  3
   1623   1621   1620   1627     1  0.0000000  0.6508444  3
   1623   1621   1620   1649     1  0.0000000  0.6508444  3
   1623   1621   1633   1645     1  0.0000000  0.6508444  3
   1623   1621   1633   1634     1  0.0000000  0.6508444  3
   1623   1621   1633   1635     1  0.0000000  0.6508444  3
   1624   1620   1627   1628     1  0.0000000  0.6508444  3
   1624   1620   1627   1629     1  0.0000000  0.6508444  3
   1624   1636   1642   1643     1  0.0000000  0.6508444  3
   1624   1636   1642   1644     1  0.0000000  0.6508444  3
   1625   1624   1620   1627     1  0.0000000  0.6508444  3
   1625   1624   1620   1649     1  0.0000000  0.6508444  3
   1625   1624   1636   1642     1  0.0000000  0.6508444  3
   1625   1624   1636   1637     1  0.0000000  0.6508444  3
   1625   1624   1636   1638     1  0.0000000  0.6508444  3
   1626   1624   1620   1627     1  0.0000000  0.6508444  3
   1626   1624   1620   1649     1  0.0000000  0.6508444  3
   1626   1624   1636   1642     1  0.0000000  0.6508444  3
   1626   1624   1636   1637     1  0.0000000  0.6508444  3
   1626   1624   1636   1638     1  0.0000000  0.6508444  3
   1627   1630   1639   1640     1  0.0000000  0.6508444  3
   1627   1630   1639   1641     1  0.0000000  0.6508444  3
   1628   1627   1620   1649     1  0.0000000  0.6508444  3
   1628   1627   1630   1639     1  0.0000000  0.6508444  3
   1628   1627   1630   1631     1  0.0000000  0.6508444  3
   1628   1627   1630   1632     1  0.0000000  0.6508444  3
   1629   1627   1620   1649     1  0.0000000  0.6508444  3
   1629   1627   1630   1639     1  0.0000000  0.6508444  3
   1629   1627   1630   1631     1  0.0000000  0.6508444  3
   1629   1627   1630   1632     1  0.0000000  0.6508444  3
   1630   1627   1620   1649     1  0.0000000  0.6508444  3
   1631   1630   1639   1648     1  0.0000000  1.0460000  1
   1631   1630   1639   1648     1  0.0000000  0.0000000  3
   1631   1630   1639   1640     1  0.0000000  0.6508444  3
   1631   1630   1639   1641     1  0.0000000  0.6508444  3
   1632   1630   1639   1648     1  0.0000000  1.0460000  1
   1632   1630   1639   1648     1  0.0000000  0.0000000  3
   1632   1630   1639   1640     1  0.0000000  0.6508444  3
   1632   1630   1639   1641     1  0.0000000  0.6508444  3
   1633   1621   1620   1649     1  0.0000000  0.6508444  3
   1634   1633   1645   3070     1  0.0000000  1.0460000  1
   1634   1633   1645   3070     1  0.0000000  0.0000000  3
   1634   1633   1645   1646     1  0.0000000  0.6508444  3
   1634   1633   1645   1647     1  0.0000000  0.6508444  3
   1635   1633   1645   3070     1  0.0000000  1.0460000  1
   1635   1633   1645   3070     1  0.0000000  0.0000000  3
   1635   1633   1645   1646     1  0.0000000  0.6508444  3
   1635   1633   1645   1647     1  0.0000000  0.6508444  3
   1636   1624   1620   1649     1  0.0000000  0.6508444  3
   1637   1636   1642   3056     1  0.0000000  1.0460000  1
   1637   1636   1642   3056     1  0.0000000  0.0000000  3
   1637   1636   1642   1643     1  0.0000000  0.6508444  3
   1637   1636   1642   1644     1  0.0000000  0.6508444  3
   1638   1636   1642   3056     1  0.0000000  1.0460000  1
   1638   1636   1642   3056     1  0.0000000  0.0000000  3
   1638   1636   1642   1643     1  0.0000000  0.6508444  3
   1638   1636   1642   1644     1  0.0000000  0.6508444  3
   1642   3056   3050   3051     1  0.0000000  1.6038667  3
   1642   3056   3050   3052     1  0.0000000  1.6038667  3
   1643   1642   3056   3050     1  0.0000000  1.6038667  3
   1644   1642   3056   3050     1  0.0000000  1.6038667  3
   1645   3070   3064   3065     1  0.0000000  1.6038667  3
   1645   3070   3064   3066     1  0.0000000  1.6038667  3
   1646   1645   3070   3064     1  0.0000000  1.6038667  3
   1647   1645   3070   3064     1  0.0000000  1.6038667  3
   1650   1651   1663   1664     1  0.0000000  0.6508444  3
   1650   1651   1663   1665     1  0.0000000  0.6508444  3
   1650   1654   1666   1667     1  0.0000000  0.6508444  3
   1650   1654   1666   1668     1  0.0000000  0.6508444  3
   1650   1657   1660   1661     1  0.0000000  0.6508444  3
   1650   1657   1660   1662     1  0.0000000  0.6508444  3
   1651   1650   1654   1655     1  0.0000000  0.6508444  3
   1651   1650   1654   1656     1  0.0000000  0.6508444  3
   1651   1650   1657   1658     1  0.0000000  0.6508444  3
   1651   1650   1657   1659     1  0.0000000  0.6508444  3
   1651   1663   1675   1676     1  0.0000000  0.6508444  3
   1651   1663   1675   1677     1  0.0000000  0.6508444  3
   1652   1651   1650   1654     1  0.0000000  0.6508444  3
   1652   1651   1650   1657     1  0.0000000  0.6508444  3
   1652   1651   1650   1679     1  0.0000000  0.6508444  3
   1652   1651   1663   1675     1  0.0000000  0.6508444  3
   1652   1651   1663   1664     1  0.0000000  0.6508444  3
   1652   1651   1663   1665     1  0.0000000  0.6508444  3
   1653   1651   1650   1654     1  0.0000000  0.6508444  3
   1653   1651   1650   1657     1  0.0000000  0.6508444  3
   1653   1651   1650   1679     1  0.0000000  0.6508444  3
   1653   1651   1663   1675     1  0.0000000  0.6508444  3
   1653   1651   1663   1664     1  0.0000000  0.6508444  3
   1653   1651   1663   1665     1  0.0000000  0.6508444  3
   1654   1650   1657   1658     1  0.0000000  0.6508444  3
   1654   1650   1657   1659     1  0.0000000  0.6508444  3
   1654   1666   1672   1673     1  0.0000000  0.6508444  3
   1654   1666   1672   1674     1  0.0000000  0.6508444  3
   1655   1654   1650   1657     1  0.0000000  0.6508444  3
   1655   1654   1650   1679     1  0.0000000  0.6508444  3
   1655   1654   1666   1672     1  0.0000000  0.6508444  3
   1655   1654   1666   1667     1  0.0000000  0.6508444  3
   1655   1654   1666   1668     1  0.0000000  0.6508444  3
   1656   1654   1650   1657     1  0.0000000  0.6508444  3
   1656   1654   1650   1679     1  0.0000000  0.6508444  3
   1656   1654   1666   1672     1  0.0000000  0.6508444  3
   1656   1654   1666   1667     1  0.0000000  0.6508444  3
   1656   1654   1666   1668     1  0.0000000  0.6508444  3
   1657   1660   1669   1670     1  0.0000000  0.6508444  3
   1657   1660   1669   1671     1  0.0000000  0.6508444  3
   1658   1657   1650   1679     1  0.0000000  0.6508444  3
   1658   1657   1660   1669     1  0.0000000  0.6508444  3
   1658   1657   1660   1661     1  0.0000000  0.6508444  3
   1658   1657   1660   1662     1  0.0000000  0.6508444  3
   1659   1657   1650   1679     1  0.0000000  0.6508444  3
   1659   1657   1660   1669     1  0.0000000  0.6508444  3
   1659   1657   1660   1661     1  0.0000000  0.6508444  3
   1659   1657   1660   1662     1  0.0000000  0.6508444  3
   1660   1657   1650   1679     1  0.0000000  0.6508444  3
   1661   1660   1669   1678     1  0.0000000  1.0460000  1
   1661   1660   1669   1678     1  0.0000000  0.0000000  3
   1661   1660   1669   1670     1  0.0000000  0.6508444  3
   1661   1660   1669   1671     1  0.0000000  0.6508444  3
   1662   1660   1669   1678     1  0.0000000  1.0460000  1
   1662   1660   1669   1678     1  0.0000000  0.0000000  3
   1662   1660   1669   1670     1  0.0000000  0.6508444  3
   1662   1660   1669   1671     1  0.0000000  0.6508444  3
   1663   1651   1650   1679     1  0.0000000  0.6508444  3
   1664   1663   1675   3098     1  0.0000000  1.0460000  1
   1664   1663   1675   3098     1  0.0000000  0.0000000  3
   1664   1663   1675   1676     1  0.0000000  0.6508444  3
   1664   1663   1675   1677     1  0.0000000  0.6508444  3
   1665   1663   1675   3098     1  0.0000000  1.0460000  1
   1665   1663   1675   3098     1  0.0000000  0.0000000  3
   1665   1663   1675   1676     1  0.0000000  0.6508444  3
   1665   1663   1675   1677     1  0.0000000  0.6508444  3
   1666   1654   1650   1679     1  0.0000000  0.6508444  3
   1667   1666   1672   3084     1  0.0000000  1.0460000  1
   1667   1666   1672   3084     1  0.0000000  0.0000000  3
   1667   1666   1672   1673     1  0.0000000  0.6508444  3
   1667   1666   1672   1674     1  0.0000000  0.6508444  3
   1668   1666   1672   3084     1  0.0000000  1.0460000  1
   1668   1666   1672   3084     1  0.0000000  0.0000000  3
   1668   1666   1672   1673     1  0.0000000  0.6508444  3
   1668   1666   1672   1674     1  0.0000000  0.6508444  3
   1672   3084   3078   3079     1  0.0000000  1.6038667  3
   1672   3084   3078   3080     1  0.0000000  1.6038667  3
   1673   1672   3084   3078     1  0.0000000  1.6038667  3
   1674   1672   3084   3078     1  0.0000000  1.6038667  3
   1675   3098   3092   3093     1  0.0000000  1.6038667  3
   1675   3098   3092   3094     1  0.0000000  1.6038667  3
   1676   1675   3098   3092     1  0.0000000  1.6038667  3
   1677   1675   3098   3092     1  0.0000000  1.6038667  3
   1680   1681   1693   1694     1  0.0000000  0.6508444  3
   1680   1681   1693   1695     1  0.0000000  0.6508444  3
   1680   1684   1696   1697     1  0.0000000  0.6508444  3
   1680   1684   1696   1698     1  0.0000000  0.6508444  3
   1680   1687   1690   1691     1  0.0000000  0.6508444  3
   1680   1687   1690   1692     1  0.0000000  0.6508444  3
   1681   1680   1684   1685     1  0.0000000  0.6508444  3
   1681   1680   1684   1686     1  0.0000000  0.6508444  3
   1681   1680   1687   1688     1  0.0000000  0.6508444  3
   1681   1680   1687   1689     1  0.0000000  0.6508444  3
   1681   1693   1705   1706     1  0.0000000  0.6508444  3
   1681   1693   1705   1707     1  0.0000000  0.6508444  3
   1682   1681   1680   1684     1  0.0000000  0.6508444  3
   1682   1681   1680   1687     1  0.0000000  0.6508444  3
   1682   1681   1680   1709     1  0.0000000  0.6508444  3
   1682   1681   1693   1705     1  0.0000000  0.6508444  3
   1682   1681   1693   1694     1  0.0000000  0.6508444  3
   1682   1681   1693   1695     1  0.0000000  0.6508444  3
   1683   1681   1680   1684     1  0.0000000  0.6508444  3
   1683   1681   1680   1687     1  0.0000000  0.6508444  3
   1683   1681   1680   1709     1  0.0000000  0.6508444  3
   1683   1681   1693   1705     1  0.0000000  0.6508444  3
   1683   1681   1693   1694     1  0.0000000  0.6508444  3
   1683   1681   1693   1695     1  0.0000000  0.6508444  3
   1684   1680   1687   1688     1  0.0000000  0.6508444  3
   1684   1680   1687   1689     1  0.0000000  0.6508444  3
   1684   1696   1702   1703     1  0.0000000  0.6508444  3
   1684   1696   1702   1704     1  0.0000000  0.6508444  3
   1685   1684   1680   1687     1  0.0000000  0.6508444  3
   1685   1684   1680   1709     1  0.0000000  0.6508444  3
   1685   1684   1696   1702     1  0.0000000  0.6508444  3
   1685   1684   1696   1697     1  0.0000000  0.6508444  3
   1685   1684   1696   1698     1  0.0000000  0.6508444  3
   1686   1684   1680   1687     1  0.0000000  0.6508444  3
   1686   1684   1680   1709     1  0.0000000  0.6508444  3
   1686   1684   1696   1702     1  0.0000000  0.6508444  3
   1686   1684   1696   1697     1  0.0000000  0.6508444  3
   1686   1684   1696   1698     1  0.0000000  0.6508444  3
   1687   1690   1699   1700     1  0.0000000  0.6508444  3
   1687   1690   1699   1701     1  0.0000000  0.6508444  3
   1688   1687   1680   1709     1  0.0000000  0.6508444  3
   1688   1687   1690   1699     1  0.0000000  0.6508444  3
   1688   1687   1690   1691     1  0.0000000  0.6508444  3
   1688   1687   1690   1692     1  0.0000000  0.6508444  3
   1689   1687   1680   1709     1  0.0000000  0.6508444  3
   1689   1687   1690   1699     1  0.0000000  0.6508444  3
   1689   1687   1690   1691     1  0.0000000  0.6508444  3
   1689   1687   1690   1692     1  0.0000000  0.6508444  3
   1690   1687   1680   1709     1  0.0000000  0.6508444  3
   1691   1690   1699   1708     1  0.0000000  1.0460000  1
   1691   1690   1699   1708     1  0.0000000  0.0000000  3
   1691   1690   1699   1700     1  0.0000000  0.6508444  3
   1691   1690   1699   1701     1  0.0000000  0.6508444  3
   1692   1690   1699   1708     1  0.0000000  1.0460000  1
   1692   1690   1699   1708     1  0.0000000  0.0000000  3
   1692   1690   1699   1700     1  0.0000000  0.6508444  3
   1692   1690   1699   1701     1  0.0000000  0.6508444  3
   1693   1681   1680   1709     1  0.0000000  0.6508444  3
   1694   1693   1705   3126     1  0.0000000  1.0460000  1
   1694   1693   1705   3126     1  0.0000000  0.0000000  3
   1694   1693   1705   1706     1  0.0000000  0.6508444  3
   1694   1693   1705   1707     1  0.0000000  0.6508444  3
   1695   1693   1705   3126     1  0.0000000  1.0460000  1
   1695   1693   1705   3126     1  0.0000000  0.0000000  3
   1695   1693   1705   1706     1  0.0000000  0.6508444  3
   1695   1693   1705   1707     1  0.0000000  0.6508444  3
   1696   1684   1680   1709     1  0.0000000  0.6508444  3
   1697   1696   1702   3112     1  0.0000000  1.0460000  1
   1697   1696   1702   3112     1  0.0000000  0.0000000  3
   1697   1696   1702   1703     1  0.0000000  0.6508444  3
   1697   1696   1702   1704     1  0.0000000  0.6508444  3
   1698   1696   1702   3112     1  0.0000000  1.0460000  1
   1698   1696   1702   3112     1  0.0000000  0.0000000  3
   1698   1696   1702   1703     1  0.0000000  0.6508444  3
   1698   1696   1702   1704     1  0.0000000  0.6508444  3
   1702   3112   3106   3107     1  0.0000000  1.6038667  3
   1702   3112   3106   3108     1  0.0000000  1.6038667  3
   1703   1702   3112   3106     1  0.0000000  1.6038667  3
   1704   1702   3112   3106     1  0.0000000  1.6038667  3
   1705   3126   3120   3121     1  0.0000000  1.6038667  3
   1705   3126   3120   3122     1  0.0000000  1.6038667  3
   1706   1705   3126   3120     1  0.0000000  1.6038667  3
   1707   1705   3126   3120     1  0.0000000  1.6038667  3
   1710   1711   1723   1724     1  0.0000000  0.6508444  3
   1710   1711   1723   1725     1  0.0000000  0.6508444  3
   1710   1714   1726   1727     1  0.0000000  0.6508444  3
   1710   1714   1726   1728     1  0.0000000  0.6508444  3
   1710   1717   1720   1721     1  0.0000000  0.6508444  3
   1710   1717   1720   1722     1  0.0000000  0.6508444  3
   1711   1710   1714   1715     1  0.0000000  0.6508444  3
   1711   1710   1714   1716     1  0.0000000  0.6508444  3
   1711   1710   1717   1718     1  0.0000000  0.6508444  3
   1711   1710   1717   1719     1  0.0000000  0.6508444  3
   1711   1723   1735   1736     1  0.0000000  0.6508444  3
   1711   1723   1735   1737     1  0.0000000  0.6508444  3
   1712   1711   1710   1714     1  0.0000000  0.6508444  3
   1712   1711   1710   1717     1  0.0000000  0.6508444  3
   1712   1711   1710   1739     1  0.0000000  0.6508444  3
   1712   1711   1723   1735     1  0.0000000  0.6508444  3
   1712   1711   1723   1724     1  0.0000000  0.6508444  3
   1712   1711   1723   1725     1  0.0000000  0.6508444  3
   1713   1711   1710   1714     1  0.0000000  0.6508444  3
   1713   1711   1710   1717     1  0.0000000  0.6508444  3
   1713   1711   1710   1739     1  0.0000000  0.6508444  3
   1713   1711   1723   1735     1  0.0000000  0.6508444  3
   1713   1711   1723   1724     1  0.0000000  0.6508444  3
   1713   1711   1723   1725     1  0.0000000  0.6508444  3
   1714   1710   1717   1718     1  0.0000000  0.6508444  3
   1714   1710   1717   1719     1  0.0000000  0.6508444  3
   1714   1726   1732   1733     1  0.0000000  0.6508444  3
   1714   1726   1732   1734     1  0.0000000  0.6508444  3
   1715   1714   1710   1717     1  0.0000000  0.6508444  3
   1715   1714   1710   1739     1  0.0000000  0.6508444  3
   1715   1714   1726   1732     1  0.0000000  0.6508444  3
   1715   1714   1726   1727     1  0.0000000  0.6508444  3
   1715   1714   1726   1728     1  0.0000000  0.6508444  3
   1716   1714   1710   1717     1  0.0000000  0.6508444  3
   1716   1714   1710   1739     1  0.0000000  0.6508444  3
   1716   1714   1726   1732     1  0.0000000  0.6508444  3
   1716   1714   1726   1727     1  0.0000000  0.6508444  3
   1716   1714   1726   1728     1  0.0000000  0.6508444  3
   1717   1720   1729   1730     1  0.0000000  0.6508444  3
   1717   1720   1729   1731     1  0.0000000  0.6508444  3
   1718   1717   1710   1739     1  0.0000000  0.6508444  3
   1718   1717   1720   1729     1  0.0000000  0.6508444  3
   1718   1717   1720   1721     1  0.0000000  0.6508444  3
   1718   1717   1720   1722     1  0.0000000  0.6508444  3
   1719   1717   1710   1739     1  0.0000000  0.6508444  3
   1719   1717   1720   1729     1  0.0000000  0.6508444  3
   1719   1717   1720   1721     1  0.0000000  0.6508444  3
   1719   1717   1720   1722     1  0.0000000  0.6508444  3
   1720   1717   1710   1739     1  0.0000000  0.6508444  3
   1721   1720   1729   1738     1  0.0000000  1.0460000  1
   1721   1720   1729   1738     1  0.0000000  0.0000000  3
   1721   1720   1729   1730     1  0.0000000  0.6508444  3
   1721   1720   1729   1731     1  0.0000000  0.6508444  3
   1722   1720   1729   1738     1  0.0000000  1.0460000  1
   1722   1720   1729   1738     1  0.0000000  0.0000000  3
   1722   1720   1729   1730     1  0.0000000  0.6508444  3
   1722   1720   1729   1731     1  0.0000000  0.6508444  3
   1723   1711   1710   1739     1  0.0000000  0.6508444  3
   1724   1723   1735   3154     1  0.0000000  1.0460000  1
   1724   1723   1735   3154     1  0.0000000  0.0000000  3
   1724   1723   1735   1736     1  0.0000000  0.6508444  3
   1724   1723   1735   1737     1  0.0000000  0.6508444  3
   1725   1723   1735   3154     1  0.0000000  1.0460000  1
   1725   1723   1735   3154     1  0.0000000  0.0000000  3
   1725   1723   1735   1736     1  0.0000000  0.6508444  3
   1725   1723   1735   1737     1  0.0000000  0.6508444  3
   1726   1714   1710   1739     1  0.0000000  0.6508444  3
   1727   1726   1732   3140     1  0.0000000  1.0460000  1
   1727   1726   1732   3140     1  0.0000000  0.0000000  3
   1727   1726   1732   1733     1  0.0000000  0.6508444  3
   1727   1726   1732   1734     1  0.0000000  0.6508444  3
   1728   1726   1732   3140     1  0.0000000  1.0460000  1
   1728   1726   1732   3140     1  0.0000000  0.0000000  3
   1728   1726   1732   1733     1  0.0000000  0.6508444  3
   1728   1726   1732   1734     1  0.0000000  0.6508444  3
   1732   3140   3134   3135     1  0.0000000  1.6038667  3
   1732   3140   3134   3136     1  0.0000000  1.6038667  3
   1733   1732   3140   3134     1  0.0000000  1.6038667  3
   1734   1732   3140   3134     1  0.0000000  1.6038667  3
   1735   3154   3148   3149     1  0.0000000  1.6038667  3
   1735   3154   3148   3150     1  0.0000000  1.6038667  3
   1736   1735   3154   3148     1  0.0000000  1.6038667  3
   1737   1735   3154   3148     1  0.0000000  1.6038667  3
   1740   1741   1753   1754     1  0.0000000  0.6508444  3
   1740   1741   1753   1755     1  0.0000000  0.6508444  3
   1740   1744   1756   1757     1  0.0000000  0.6508444  3
   1740   1744   1756   1758     1  0.0000000  0.6508444  3
   1740   1747   1750   1751     1  0.0000000  0.6508444  3
   1740   1747   1750   1752     1  0.0000000  0.6508444  3
   1741   1740   1744   1745     1  0.0000000  0.6508444  3
   1741   1740   1744   1746     1  0.0000000  0.6508444  3
   1741   1740   1747   1748     1  0.0000000  0.6508444  3
   1741   1740   1747   1749     1  0.0000000  0.6508444  3
   1741   1753   1765   1766     1  0.0000000  0.6508444  3
   1741   1753   1765   1767     1  0.0000000  0.6508444  3
   1742   1741   1740   1744     1  0.0000000  0.6508444  3
   1742   1741   1740   1747     1  0.0000000  0.6508444  3
   1742   1741   1740   1769     1  0.0000000  0.6508444  3
   1742   1741   1753   1765     1  0.0000000  0.6508444  3
   1742   1741   1753   1754     1  0.0000000  0.6508444  3
   1742   1741   1753   1755     1  0.0000000  0.6508444  3
   1743   1741   1740   1744     1  0.0000000  0.6508444  3
   1743   1741   1740   1747     1  0.0000000  0.6508444  3
   1743   1741   1740   1769     1  0.0000000  0.6508444  3
   1743   1741   1753   1765     1  0.0000000  0.6508444  3
   1743   1741   1753   1754     1  0.0000000  0.6508444  3
   1743   1741   1753   1755     1  0.0000000  0.6508444  3
   1744   1740   1747   1748     1  0.0000000  0.6508444  3
   1744   1740   1747   1749     1  0.0000000  0.6508444  3
   1744   1756   1762   1763     1  0.0000000  0.6508444  3
   1744   1756   1762   1764     1  0.0000000  0.6508444  3
   1745   1744   1740   1747     1  0.0000000  0.6508444  3
   1745   1744   1740   1769     1  0.0000000  0.6508444  3
   1745   1744   1756   1762     1  0.0000000  0.6508444  3
   1745   1744   1756   1757     1  0.0000000  0.6508444  3
   1745   1744   1756   1758     1  0.0000000  0.6508444  3
   1746   1744   1740   1747     1  0.0000000  0.6508444  3
   1746   1744   1740   1769     1  0.0000000  0.6508444  3
   1746   1744   1756   1762     1  0.0000000  0.6508444  3
   1746   1744   1756   1757     1  0.0000000  0.6508444  3
   1746   1744   1756   1758     1  0.0000000  0.6508444  3
   1747   1750   1759   1760     1  0.0000000  0.6508444  3
   1747   1750   1759   1761     1  0.0000000  0.6508444  3
   1748   1747   1740   1769     1  0.0000000  0.6508444  3
   1748   1747   1750   1759     1  0.0000000  0.6508444  3
   1748   1747   1750   1751     1  0.0000000  0.6508444  3
   1748   1747   1750   1752     1  0.0000000  0.6508444  3
   1749   1747   1740   1769     1  0.0000000  0.6508444  3
   1749   1747   1750   1759     1  0.0000000  0.6508444  3
   1749   1747   1750   1751     1  0.0000000  0.6508444  3
   1749   1747   1750   1752     1  0.0000000  0.6508444  3
   1750   1747   1740   1769     1  0.0000000  0.6508444  3
   1751   1750   1759   1768     1  0.0000000  1.0460000  1
   1751   1750   1759   1768     1  0.0000000  0.0000000  3
   1751   1750   1759   1760     1  0.0000000  0.6508444  3
   1751   1750   1759   1761     1  0.0000000  0.6508444  3
   1752   1750   1759   1768     1  0.0000000  1.0460000  1
   1752   1750   1759   1768     1  0.0000000  0.0000000  3
   1752   1750   1759   1760     1  0.0000000  0.6508444  3
   1752   1750   1759   1761     1  0.0000000  0.6508444  3
   1753   1741   1740   1769     1  0.0000000  0.6508444  3
   1754   1753   1765   3182     1  0.0000000  1.0460000  1
   1754   1753   1765   3182     1  0.0000000  0.0000000  3
   1754   1753   1765   1766     1  0.0000000  0.6508444  3
   1754   1753   1765   1767     1  0.0000000  0.6508444  3
   1755   1753   1765   3182     1  0.0000000  1.0460000  1
   1755   1753   1765   3182     1  0.0000000  0.0000000  3
   1755   1753   1765   1766     1  0.0000000  0.6508444  3
   1755   1753   1765   1767     1  0.0000000  0.6508444  3
   1756   1744   1740   1769     1  0.0000000  0.6508444  3
   1757   1756   1762   3168     1  0.0000000  1.0460000  1
   1757   1756   1762   3168     1  0.0000000  0.0000000  3
   1757   1756   1762   1763     1  0.0000000  0.6508444  3
   1757   1756   1762   1764     1  0.0000000  0.6508444  3
   1758   1756   1762   3168     1  0.0000000  1.0460000  1
   1758   1756   1762   3168     1  0.0000000  0.0000000  3
   1758   1756   1762   1763     1  0.0000000  0.6508444  3
   1758   1756   1762   1764     1  0.0000000  0.6508444  3
   1762   3168   3162   3163     1  0.0000000  1.6038667  3
   1762   3168   3162   3164     1  0.0000000  1.6038667  3
   1763   1762   3168   3162     1  0.0000000  1.6038667  3
   1764   1762   3168   3162     1  0.0000000  1.6038667  3
   1765   3182   3176   3177     1  0.0000000  1.6038667  3
   1765   3182   3176   3178     1  0.0000000  1.6038667  3
   1766   1765   3182   3176     1  0.0000000  1.6038667  3
   1767   1765   3182   3176     1  0.0000000  1.6038667  3
   1770   1771   1783   1784     1  0.0000000  0.6508444  3
   1770   1771   1783   1785     1  0.0000000  0.6508444  3
   1770   1774   1786   1787     1  0.0000000  0.6508444  3
   1770   1774   1786   1788     1  0.0000000  0.6508444  3
   1770   1777   1780   1781     1  0.0000000  0.6508444  3
   1770   1777   1780   1782     1  0.0000000  0.6508444  3
   1771   1770   1774   1775     1  0.0000000  0.6508444  3
   1771   1770   1774   1776     1  0.0000000  0.6508444  3
   1771   1770   1777   1778     1  0.0000000  0.6508444  3
   1771   1770   1777   1779     1  0.0000000  0.6508444  3
   1771   1783   1795   1796     1  0.0000000  0.6508444  3
   1771   1783   1795   1797     1  0.0000000  0.6508444  3
   1772   1771   1770   1774     1  0.0000000  0.6508444  3
   1772   1771   1770   1777     1  0.0000000  0.6508444  3
   1772   1771   1770   1799     1  0.0000000  0.6508444  3
   1772   1771   1783   1795     1  0.0000000  0.6508444  3
   1772   1771   1783   1784     1  0.0000000  0.6508444  3
   1772   1771   1783   1785     1  0.0000000  0.6508444  3
   1773   1771   1770   1774     1  0.0000000  0.6508444  3
   1773   1771   1770   1777     1  0.0000000  0.6508444  3
   1773   1771   1770   1799     1  0.0000000  0.6508444  3
   1773   1771   1783   1795     1  0.0000000  0.6508444  3
   1773   1771   1783   1784     1  0.0000000  0.6508444  3
   1773   1771   1783   1785     1  0.0000000  0.6508444  3
   1774   1770   1777   1778     1  0.0000000  0.6508444  3
   1774   1770   1777   1779     1  0.0000000  0.6508444  3
   1774   1786   1792   1793     1  0.0000000  0.6508444  3
   1774   1786   1792   1794     1  0.0000000  0.6508444  3
   1775   1774   1770   1777     1  0.0000000  0.6508444  3
   1775   1774   1770   1799     1  0.0000000  0.6508444  3
   1775   1774   1786   1792     1  0.0000000  0.6508444  3
   1775   1774   1786   1787     1  0.0000000  0.6508444  3
   1775   1774   1786   1788     1  0.0000000  0.6508444  3
   1776   1774   1770   1777     1  0.0000000  0.6508444  3
   1776   1774   1770   1799     1  0.0000000  0.6508444  3
   1776   1774   1786   1792     1  0.0000000  0.6508444  3
   1776   1774   1786   1787     1  0.0000000  0.6508444  3
   1776   1774   1786   1788     1  0.0000000  0.6508444  3
   1777   1780   1789   1790     1  0.0000000  0.6508444  3
   1777   1780   1789   1791     1  0.0000000  0.6508444  3
   1778   1777   1770   1799     1  0.0000000  0.6508444  3
   1778   1777   1780   1789     1  0.0000000  0.6508444  3
   1778   1777   1780   1781     1  0.0000000  0.6508444  3
   1778   1777   1780   1782     1  0.0000000  0.6508444  3
   1779   1777   1770   1799     1  0.0000000  0.6508444  3
   1779   1777   1780   1789     1  0.0000000  0.6508444  3
   1779   1777   1780   1781     1  0.0000000  0.6508444  3
   1779   1777   1780   1782     1  0.0000000  0.6508444  3
   1780   1777   1770   1799     1  0.0000000  0.6508444  3
   1781   1780   1789   1798     1  0.0000000  1.0460000  1
   1781   1780   1789   1798     1  0.0000000  0.0000000  3
   1781   1780   1789   1790     1  0.0000000  0.6508444  3
   1781   1780   1789   1791     1  0.0000000  0.6508444  3
   1782   1780   1789   1798     1  0.0000000  1.0460000  1
   1782   1780   1789   1798     1  0.0000000  0.0000000  3
   1782   1780   1789   1790     1  0.0000000  0.6508444  3
   1782   1780   1789   1791     1  0.0000000  0.6508444  3
   1783   1771   1770   1799     1  0.0000000  0.6508444  3
   1784   1783   1795   3210     1  0.0000000  1.0460000  1
   1784   1783   1795   3210     1  0.0000000  0.0000000  3
   1784   1783   1795   1796     1  0.0000000  0.6508444  3
   1784   1783   1795   1797     1  0.0000000  0.6508444  3
   1785   1783   1795   3210     1  0.0000000  1.0460000  1
   1785   1783   1795   3210     1  0.0000000  0.0000000  3
   1785   1783   1795   1796     1  0.0000000  0.6508444  3
   1785   1783   1795   1797     1  0.0000000  0.6508444  3
   1786   1774   1770   1799     1  0.0000000  0.6508444  3
   1787   1786   1792   3196     1  0.0000000  1.0460000  1
   1787   1786   1792   3196     1  0.0000000  0.0000000  3
   1787   1786   1792   1793     1  0.0000000  0.6508444  3
   1787   1786   1792   1794     1  0.0000000  0.6508444  3
   1788   1786   1792   3196     1  0.0000000  1.0460000  1
   1788   1786   1792   3196     1  0.0000000  0.0000000  3
   1788   1786   1792   1793     1  0.0000000  0.6508444  3
   1788   1786   1792   1794     1  0.0000000  0.6508444  3
   1792   3196   3190   3191     1  0.0000000  1.6038667  3
   1792   3196   3190   3192     1  0.0000000  1.6038667  3
   1793   1792   3196   3190     1  0.0000000  1.6038667  3
   1794   1792   3196   3190     1  0.0000000  1.6038667  3
   1795   3210   3204   3205     1  0.0000000  1.6038667  3
   1795   3210   3204   3206     1  0.0000000  1.6038667  3
   1796   1795   3210   3204     1  0.0000000  1.6038667  3
   1797   1795   3210   3204     1  0.0000000  1.6038667  3
   1800   1801   1813   1814     1  0.0000000  0.6508444  3
   1800   1801   1813   1815     1  0.0000000  0.6508444  3
   1800   1804   1816   1817     1  0.0000000  0.6508444  3
   1800   1804   1816   1818     1  0.0000000  0.6508444  3
   1800   1807   1810   1811     1  0.0000000  0.6508444  3
   1800   1807   1810   1812     1  0.0000000  0.6508444  3
   1801   1800   1804   1805     1  0.0000000  0.6508444  3
   1801   1800   1804   1806     1  0.0000000  0.6508444  3
   1801   1800   1807   1808     1  0.0000000  0.6508444  3
   1801   1800   1807   1809     1  0.0000000  0.6508444  3
   1801   1813   1825   1826     1  0.0000000  0.6508444  3
   1801   1813   1825   1827     1  0.0000000  0.6508444  3
   1802   1801   1800   1804     1  0.0000000  0.6508444  3
   1802   1801   1800   1807     1  0.0000000  0.6508444  3
   1802   1801   1800   1829     1  0.0000000  0.6508444  3
   1802   1801   1813   1825     1  0.0000000  0.6508444  3
   1802   1801   1813   1814     1  0.0000000  0.6508444  3
   1802   1801   1813   1815     1  0.0000000  0.6508444  3
   1803   1801   1800   1804     1  0.0000000  0.6508444  3
   1803   1801   1800   1807     1  0.0000000  0.6508444  3
   1803   1801   1800   1829     1  0.0000000  0.6508444  3
   1803   1801   1813   1825     1  0.0000000  0.6508444  3
   1803   1801   1813   1814     1  0.0000000  0.6508444  3
   1803   1801   1813   1815     1  0.0000000  0.6508444  3
   1804   1800   1807   1808     1  0.0000000  0.6508444  3
   1804   1800   1807   1809     1  0.0000000  0.6508444  3
   1804   1816   1822   1823     1  0.0000000  0.6508444  3
   1804   1816   1822   1824     1  0.0000000  0.6508444  3
   1805   1804   1800   1807     1  0.0000000  0.6508444  3
   1805   1804   1800   1829     1  0.0000000  0.6508444  3
   1805   1804   1816   1822     1  0.0000000  0.6508444  3
   1805   1804   1816   1817     1  0.0000000  0.6508444  3
   1805   1804   1816   1818     1  0.0000000  0.6508444  3
   1806   1804   1800   1807     1  0.0000000  0.6508444  3
   1806   1804   1800   1829     1  0.0000000  0.6508444  3
   1806   1804   1816   1822     1  0.0000000  0.6508444  3
   1806   1804   1816   1817     1  0.0000000  0.6508444  3
   1806   1804   1816   1818     1  0.0000000  0.6508444  3
   1807   1810   1819   1820     1  0.0000000  0.6508444  3
   1807   1810   1819   1821     1  0.0000000  0.6508444  3
   1808   1807   1800   1829     1  0.0000000  0.6508444  3
   1808   1807   1810   1819     1  0.0000000  0.6508444  3
   1808   1807   1810   1811     1  0.0000000  0.6508444  3
   1808   1807   1810   1812     1  0.0000000  0.6508444  3
   1809   1807   1800   1829     1  0.0000000  0.6508444  3
   1809   1807   1810   1819     1  0.0000000  0.6508444  3
   1809   1807   1810   1811     1  0.0000000  0.6508444  3
   1809   1807   1810   1812     1  0.0000000  0.6508444  3
   1810   1807   1800   1829     1  0.0000000  0.6508444  3
   1811   1810   1819   1828     1  0.0000000  1.0460000  1
   1811   1810   1819   1828     1  0.0000000  0.0000000  3
   1811   1810   1819   1820     1  0.0000000  0.6508444  3
   1811   1810   1819   1821     1  0.0000000  0.6508444  3
   1812   1810   1819   1828     1  0.0000000  1.0460000  1
   1812   1810   1819   1828     1  0.0000000  0.0000000  3
   1812   1810   1819   1820     1  0.0000000  0.6508444  3
   1812   1810   1819   1821     1  0.0000000  0.6508444  3
   1813   1801   1800   1829     1  0.0000000  0.6508444  3
   1814   1813   1825   3238     1  0.0000000  1.0460000  1
   1814   1813   1825   3238     1  0.0000000  0.0000000  3
   1814   1813   1825   1826     1  0.0000000  0.6508444  3
   1814   1813   1825   1827     1  0.0000000  0.6508444  3
   1815   1813   1825   3238     1  0.0000000  1.0460000  1
   1815   1813   1825   3238     1  0.0000000  0.0000000  3
   1815   1813   1825   1826     1  0.0000000  0.6508444  3
   1815   1813   1825   1827     1  0.0000000  0.6508444  3
   1816   1804   1800   1829     1  0.0000000  0.6508444  3
   1817   1816   1822   3224     1  0.0000000  1.0460000  1
   1817   1816   1822   3224     1  0.0000000  0.0000000  3
   1817   1816   1822   1823     1  0.0000000  0.6508444  3
   1817   1816   1822   1824     1  0.0000000  0.6508444  3
   1818   1816   1822   3224     1  0.0000000  1.0460000  1
   1818   1816   1822   3224     1  0.0000000  0.0000000  3
   1818   1816   1822   1823     1  0.0000000  0.6508444  3
   1818   1816   1822   1824     1  0.0000000  0.6508444  3
   1822   3224   3218   3219     1  0.0000000  1.6038667  3
   1822   3224   3218   3220     1  0.0000000  1.6038667  3
   1823   1822   3224   3218     1  0.0000000  1.6038667  3
   1824   1822   3224   3218     1  0.0000000  1.6038667  3
   1825   3238   3232   3233     1  0.0000000  1.6038667  3
   1825   3238   3232   3234     1  0.0000000  1.6038667  3
   1826   1825   3238   3232     1  0.0000000  1.6038667  3
   1827   1825   3238   3232     1  0.0000000  1.6038667  3
   1830   1831   1843   1844     1  0.0000000  0.6508444  3
   1830   1831   1843   1845     1  0.0000000  0.6508444  3
   1830   1834   1846   1847     1  0.0000000  0.6508444  3
   1830   1834   1846   1848     1  0.0000000  0.6508444  3
   1830   1837   1840   1841     1  0.0000000  0.6508444  3
   1830   1837   1840   1842     1  0.0000000  0.6508444  3
   1831   1830   1834   1835     1  0.0000000  0.6508444  3
   1831   1830   1834   1836     1  0.0000000  0.6508444  3
   1831   1830   1837   1838     1  0.0000000  0.6508444  3
   1831   1830   1837   1839     1  0.0000000  0.6508444  3
   1831   1843   1855   1856     1  0.0000000  0.6508444  3
   1831   1843   1855   1857     1  0.0000000  0.6508444  3
   1832   1831   1830   1834     1  0.0000000  0.6508444  3
   1832   1831   1830   1837     1  0.0000000  0.6508444  3
   1832   1831   1830   1859     1  0.0000000  0.6508444  3
   1832   1831   1843   1855     1  0.0000000  0.6508444  3
   1832   1831   1843   1844     1  0.0000000  0.6508444  3
   1832   1831   1843   1845     1  0.0000000  0.6508444  3
   1833   1831   1830   1834     1  0.0000000  0.6508444  3
   1833   1831   1830   1837     1  0.0000000  0.6508444  3
   1833   1831   1830   1859     1  0.0000000  0.6508444  3
   1833   1831   1843   1855     1  0.0000000  0.6508444  3
   1833   1831   1843   1844     1  0.0000000  0.6508444  3
   1833   1831   1843   1845     1  0.0000000  0.6508444  3
   1834   1830   1837   1838     1  0.0000000  0.6508444  3
   1834   1830   1837   1839     1  0.0000000  0.6508444  3
   1834   1846   1852   1853     1  0.0000000  0.6508444  3
   1834   1846   1852   1854     1  0.0000000  0.6508444  3
   1835   1834   1830   1837     1  0.0000000  0.6508444  3
   1835   1834   1830   1859     1  0.0000000  0.6508444  3
   1835   1834   1846   1852     1  0.0000000  0.6508444  3
   1835   1834   1846   1847     1  0.0000000  0.6508444  3
   1835   1834   1846   1848     1  0.0000000  0.6508444  3
   1836   1834   1830   1837     1  0.0000000  0.6508444  3
   1836   1834   1830   1859     1  0.0000000  0.6508444  3
   1836   1834   1846   1852     1  0.0000000  0.6508444  3
   1836   1834   1846   1847     1  0.0000000  0.6508444  3
   1836   1834   1846   1848     1  0.0000000  0.6508444  3
   1837   1840   1849   1850     1  0.0000000  0.6508444  3
   1837   1840   1849   1851     1  0.0000000  0.6508444  3
   1838   1837   1830   1859     1  0.0000000  0.6508444  3
   1838   1837   1840   1849     1  0.0000000  0.6508444  3
   1838   1837   1840   1841     1  0.0000000  0.6508444  3
   1838   1837   1840   1842     1  0.0000000  0.6508444  3
   1839   1837   1830   1859     1  0.0000000  0.6508444  3
   1839   1837   1840   1849     1  0.0000000  0.6508444  3
   1839   1837   1840   1841     1  0.0000000  0.6508444  3
   1839   1837   1840   1842     1  0.0000000  0.6508444  3
   1840   1837   1830   1859     1  0.0000000  0.6508444  3
   1841   1840   1849   1858     1  0.0000000  1.0460000  1
   1841   1840   1849   1858     1  0.0000000  0.0000000  3
   1841   1840   1849   1850     1  0.0000000  0.6508444  3
   1841   1840   1849   1851     1  0.0000000  0.6508444  3
   1842   1840   1849   1858     1  0.0000000  1.0460000  1
   1842   1840   1849   1858     1  0.0000000  0.0000000  3
   1842   1840   1849   1850     1  0.0000000  0.6508444  3
   1842   1840   1849   1851     1  0.0000000  0.6508444  3
   1843   1831   1830   1859     1  0.0000000  0.6508444  3
   1844   1843   1855   3266     1  0.0000000  1.0460000  1
   1844   1843   1855   3266     1  0.0000000  0.0000000  3
   1844   1843   1855   1856     1  0.0000000  0.6508444  3
   1844   1843   1855   1857     1  0.0000000  0.6508444  3
   1845   1843   1855   3266     1  0.0000000  1.0460000  1
   1845   1843   1855   3266     1  0.0000000  0.0000000  3
   1845   1843   1855   1856     1  0.0000000  0.6508444  3
   1845   1843   1855   1857     1  0.0000000  0.6508444  3
   1846   1834   1830   1859     1  0.0000000  0.6508444  3
   1847   1846   1852   3252     1  0.0000000  1.0460000  1
   1847   1846   1852   3252     1  0.0000000  0.0000000  3
   1847   1846   1852   1853     1  0.0000000  0.6508444  3
   1847   1846   1852   1854     1  0.0000000  0.6508444  3
   1848   1846   1852   3252     1  0.0000000  1.0460000  1
   1848   1846   1852   3252     1  0.0000000  0.0000000  3
   1848   1846   1852   1853     1  0.0000000  0.6508444  3
   1848   1846   1852   1854     1  0.0000000  0.6508444  3
   1852   3252   3246   3247     1  0.0000000  1.6038667  3
   1852   3252   3246   3248     1  0.0000000  1.6038667  3
   1853   1852   3252   3246     1  0.0000000  1.6038667  3
   1854   1852   3252   3246     1  0.0000000  1.6038667  3
   1855   3266   3260   3261     1  0.0000000  1.6038667  3
   1855   3266   3260   3262     1  0.0000000  1.6038667  3
   1856   1855   3266   3260     1  0.0000000  1.6038667  3
   1857   1855   3266   3260     1  0.0000000  1.6038667  3
   1860   1861   1873   1874     1  0.0000000  0.6508444  3
   1860   1861   1873   1875     1  0.0000000  0.6508444  3
   1860   1864   1876   1877     1  0.0000000  0.6508444  3
   1860   1864   1876   1878     1  0.0000000  0.6508444  3
   1860   1867   1870   1871     1  0.0000000  0.6508444  3
   1860   1867   1870   1872     1  0.0000000  0.6508444  3
   1861   1860   1864   1865     1  0.0000000  0.6508444  3
   1861   1860   1864   1866     1  0.0000000  0.6508444  3
   1861   1860   1867   1868     1  0.0000000  0.6508444  3
   1861   1860   1867   1869     1  0.0000000  0.6508444  3
   1861   1873   1885   1886     1  0.0000000  0.6508444  3
   1861   1873   1885   1887     1  0.0000000  0.6508444  3
   1862   1861   1860   1864     1  0.0000000  0.6508444  3
   1862   1861   1860   1867     1  0.0000000  0.6508444  3
   1862   1861   1860   1889     1  0.0000000  0.6508444  3
   1862   1861   1873   1885     1  0.0000000  0.6508444  3
   1862   1861   1873   1874     1  0.0000000  0.6508444  3
   1862   1861   1873   1875     1  0.0000000  0.6508444  3
   1863   1861   1860   1864     1  0.0000000  0.6508444  3
   1863   1861   1860   1867     1  0.0000000  0.6508444  3
   1863   1861   1860   1889     1  0.0000000  0.6508444  3
   1863   1861   1873   1885     1  0.0000000  0.6508444  3
   1863   1861   1873   1874     1  0.0000000  0.6508444  3
   1863   1861   1873   1875     1  0.0000000  0.6508444  3
   1864   1860   1867   1868     1  0.0000000  0.6508444  3
   1864   1860   1867   1869     1  0.0000000  0.6508444  3
   1864   1876   1882   1883     1  0.0000000  0.6508444  3
   1864   1876   1882   1884     1  0.0000000  0.6508444  3
   1865   1864   1860   1867     1  0.0000000  0.6508444  3
   1865   1864   1860   1889     1  0.0000000  0.6508444  3
   1865   1864   1876   1882     1  0.0000000  0.6508444  3
   1865   1864   1876   1877     1  0.0000000  0.6508444  3
   1865   1864   1876   1878     1  0.0000000  0.6508444  3
   1866   1864   1860   1867     1  0.0000000  0.6508444  3
   1866   1864   1860   1889     1  0.0000000  0.6508444  3
   1866   1864   1876   1882     1  0.0000000  0.6508444  3
   1866   1864   1876   1877     1  0.0000000  0.6508444  3
   1866   1864   1876   1878     1  0.0000000  0.6508444  3
   1867   1870   1879   1880     1  0.0000000  0.6508444  3
   1867   1870   1879   1881     1  0.0000000  0.6508444  3
   1868   1867   1860   1889     1  0.0000000  0.6508444  3
   1868   1867   1870   1879     1  0.0000000  0.6508444  3
   1868   1867   1870   1871     1  0.0000000  0.6508444  3
   1868   1867   1870   1872     1  0.0000000  0.6508444  3
   1869   1867   1860   1889     1  0.0000000  0.6508444  3
   1869   1867   1870   1879     1  0.0000000  0.6508444  3
   1869   1867   1870   1871     1  0.0000000  0.6508444  3
   1869   1867   1870   1872     1  0.0000000  0.6508444  3
   1870   1867   1860   1889     1  0.0000000  0.6508444  3
   1871   1870   1879   1888     1  0.0000000  1.0460000  1
   1871   1870   1879   1888     1  0.0000000  0.0000000  3
   1871   1870   1879   1880     1  0.0000000  0.6508444  3
   1871   1870   1879   1881     1  0.0000000  0.6508444  3
   1872   1870   1879   1888     1  0.0000000  1.0460000  1
   1872   1870   1879   1888     1  0.0000000  0.0000000  3
   1872   1870   1879   1880     1  0.0000000  0.6508444  3
   1872   1870   1879   1881     1  0.0000000  0.6508444  3
   1873   1861   1860   1889     1  0.0000000  0.6508444  3
   1874   1873   1885   3294     1  0.0000000  1.0460000  1
   1874   1873   1885   3294     1  0.0000000  0.0000000  3
   1874   1873   1885   1886     1  0.0000000  0.6508444  3
   1874   1873   1885   1887     1  0.0000000  0.6508444  3
   1875   1873   1885   3294     1  0.0000000  1.0460000  1
   1875   1873   1885   3294     1  0.0000000  0.0000000  3
   1875   1873   1885   1886     1  0.0000000  0.6508444  3
   1875   1873   1885   1887     1  0.0000000  0.6508444  3
   1876   1864   1860   1889     1  0.0000000  0.6508444  3
   1877   1876   1882   3280     1  0.0000000  1.0460000  1
   1877   1876   1882   3280     1  0.0000000  0.0000000  3
   1877   1876   1882   1883     1  0.0000000  0.6508444  3
   1877   1876   1882   1884     1  0.0000000  0.6508444  3
   1878   1876   1882   3280     1  0.0000000  1.0460000  1
   1878   1876   1882   3280     1  0.0000000  0.0000000  3
   1878   1876   1882   1883     1  0.0000000  0.6508444  3
   1878   1876   1882   1884     1  0.0000000  0.6508444  3
   1882   3280   3274   3275     1  0.0000000  1.6038667  3
   1882   3280   3274   3276     1  0.0000000  1.6038667  3
   1883   1882   3280   3274     1  0.0000000  1.6038667  3
   1884   1882   3280   3274     1  0.0000000  1.6038667  3
   1885   3294   3288   3289     1  0.0000000  1.6038667  3
   1885   3294   3288   3290     1  0.0000000  1.6038667  3
   1886   1885   3294   3288     1  0.0000000  1.6038667  3
   1887   1885   3294   3288     1  0.0000000  1.6038667  3
   1890   1891   1903   1904     1  0.0000000  0.6508444  3
   1890   1891   1903   1905     1  0.0000000  0.6508444  3
   1890   1894   1906   1907     1  0.0000000  0.6508444  3
   1890   1894   1906   1908     1  0.0000000  0.6508444  3
   1890   1897   1900   1901     1  0.0000000  0.6508444  3
   1890   1897   1900   1902     1  0.0000000  0.6508444  3
   1891   1890   1894   1895     1  0.0000000  0.6508444  3
   1891   1890   1894   1896     1  0.0000000  0.6508444  3
   1891   1890   1897   1898     1  0.0000000  0.6508444  3
   1891   1890   1897   1899     1  0.0000000  0.6508444  3
   1891   1903   1915   1916     1  0.0000000  0.6508444  3
   1891   1903   1915   1917     1  0.0000000  0.6508444  3
   1892   1891   1890   1894     1  0.0000000  0.6508444  3
   1892   1891   1890   1897     1  0.0000000  0.6508444  3
   1892   1891   1890   1919     1  0.0000000  0.6508444  3
   1892   1891   1903   1915     1  0.0000000  0.6508444  3
   1892   1891   1903   1904     1  0.0000000  0.6508444  3
   1892   1891   1903   1905     1  0.0000000  0.6508444  3
   1893   1891   1890   1894     1  0.0000000  0.6508444  3
   1893   1891   1890   1897     1  0.0000000  0.6508444  3
   1893   1891   1890   1919     1  0.0000000  0.6508444  3
   1893   1891   1903   1915     1  0.0000000  0.6508444  3
   1893   1891   1903   1904     1  0.0000000  0.6508444  3
   1893   1891   1903   1905     1  0.0000000  0.6508444  3
   1894   1890   1897   1898     1  0.0000000  0.6508444  3
   1894   1890   1897   1899     1  0.0000000  0.6508444  3
   1894   1906   1912   1913     1  0.0000000  0.6508444  3
   1894   1906   1912   1914     1  0.0000000  0.6508444  3
   1895   1894   1890   1897     1  0.0000000  0.6508444  3
   1895   1894   1890   1919     1  0.0000000  0.6508444  3
   1895   1894   1906   1912     1  0.0000000  0.6508444  3
   1895   1894   1906   1907     1  0.0000000  0.6508444  3
   1895   1894   1906   1908     1  0.0000000  0.6508444  3
   1896   1894   1890   1897     1  0.0000000  0.6508444  3
   1896   1894   1890   1919     1  0.0000000  0.6508444  3
   1896   1894   1906   1912     1  0.0000000  0.6508444  3
   1896   1894   1906   1907     1  0.0000000  0.6508444  3
   1896   1894   1906   1908     1  0.0000000  0.6508444  3
   1897   1900   1909   1910     1  0.0000000  0.6508444  3
   1897   1900   1909   1911     1  0.0000000  0.6508444  3
   1898   1897   1890   1919     1  0.0000000  0.6508444  3
   1898   1897   1900   1909     1  0.0000000  0.6508444  3
   1898   1897   1900   1901     1  0.0000000  0.6508444  3
   1898   1897   1900   1902     1  0.0000000  0.6508444  3
   1899   1897   1890   1919     1  0.0000000  0.6508444  3
   1899   1897   1900   1909     1  0.0000000  0.6508444  3
   1899   1897   1900   1901     1  0.0000000  0.6508444  3
   1899   1897   1900   1902     1  0.0000000  0.6508444  3
   1900   1897   1890   1919     1  0.0000000  0.6508444  3
   1901   1900   1909   1918     1  0.0000000  1.0460000  1
   1901   1900   1909   1918     1  0.0000000  0.0000000  3
   1901   1900   1909   1910     1  0.0000000  0.6508444  3
   1901   1900   1909   1911     1  0.0000000  0.6508444  3
   1902   1900   1909   1918     1  0.0000000  1.0460000  1
   1902   1900   1909   1918     1  0.0000000  0.0000000  3
   1902   1900   1909   1910     1  0.0000000  0.6508444  3
   1902   1900   1909   1911     1  0.0000000  0.6508444  3
   1903   1891   1890   1919     1  0.0000000  0.6508444  3
   1904   1903   1915   3322     1  0.0000000  1.0460000  1
   1904   1903   1915   3322     1  0.0000000  0.0000000  3
   1904   1903   1915   1916     1  0.0000000  0.6508444  3
   1904   1903   1915   1917     1  0.0000000  0.6508444  3
   1905   1903   1915   3322     1  0.0000000  1.0460000  1
   1905   1903   1915   3322     1  0.0000000  0.0000000  3
   1905   1903   1915   1916     1  0.0000000  0.6508444  3
   1905   1903   1915   1917     1  0.0000000  0.6508444  3
   1906   1894   1890   1919     1  0.0000000  0.6508444  3
   1907   1906   1912   3308     1  0.0000000  1.0460000  1
   1907   1906   1912   3308     1  0.0000000  0.0000000  3
   1907   1906   1912   1913     1  0.0000000  0.6508444  3
   1907   1906   1912   1914     1  0.0000000  0.6508444  3
   1908   1906   1912   3308     1  0.0000000  1.0460000  1
   1908   1906   1912   3308     1  0.0000000  0.0000000  3
   1908   1906   1912   1913     1  0.0000000  0.6508444  3
   1908   1906   1912   1914     1  0.0000000  0.6508444  3
   1912   3308   3302   3303     1  0.0000000  1.6038667  3
   1912   3308   3302   3304     1  0.0000000  1.6038667  3
   1913   1912   3308   3302     1  0.0000000  1.6038667  3
   1914   1912   3308   3302     1  0.0000000  1.6038667  3
   1915   3322   3316   3317     1  0.0000000  1.6038667  3
   1915   3322   3316   3318     1  0.0000000  1.6038667  3
   1916   1915   3322   3316     1  0.0000000  1.6038667  3
   1917   1915   3322   3316     1  0.0000000  1.6038667  3
   1920   1921   1933   1934     1  0.0000000  0.6508444  3
   1920   1921   1933   1935     1  0.0000000  0.6508444  3
   1920   1924   1936   1937     1  0.0000000  0.6508444  3
   1920   1924   1936   1938     1  0.0000000  0.6508444  3
   1920   1927   1930   1931     1  0.0000000  0.6508444  3
   1920   1927   1930   1932     1  0.0000000  0.6508444  3
   1921   1920   1924   1925     1  0.0000000  0.6508444  3
   1921   1920   1924   1926     1  0.0000000  0.6508444  3
   1921   1920   1927   1928     1  0.0000000  0.6508444  3
   1921   1920   1927   1929     1  0.0000000  0.6508444  3
   1921   1933   1945   1946     1  0.0000000  0.6508444  3
   1921   1933   1945   1947     1  0.0000000  0.6508444  3
   1922   1921   1920   1924     1  0.0000000  0.6508444  3
   1922   1921   1920   1927     1  0.0000000  0.6508444  3
   1922   1921   1920   1949     1  0.0000000  0.6508444  3
   1922   1921   1933   1945     1  0.0000000  0.6508444  3
   1922   1921   1933   1934     1  0.0000000  0.6508444  3
   1922   1921   1933   1935     1  0.0000000  0.6508444  3
   1923   1921   1920   1924     1  0.0000000  0.6508444  3
   1923   1921   1920   1927     1  0.0000000  0.6508444  3
   1923   1921   1920   1949     1  0.0000000  0.6508444  3
   1923   1921   1933   1945     1  0.0000000  0.6508444  3
   1923   1921   1933   1934     1  0.0000000  0.6508444  3
   1923   1921   1933   1935     1  0.0000000  0.6508444  3
   1924   1920   1927   1928     1  0.0000000  0.6508444  3
   1924   1920   1927   1929     1  0.0000000  0.6508444  3
   1924   1936   1942   1943     1  0.0000000  0.6508444  3
   1924   1936   1942   1944     1  0.0000000  0.6508444  3
   1925   1924   1920   1927     1  0.0000000  0.6508444  3
   1925   1924   1920   1949     1  0.0000000  0.6508444  3
   1925   1924   1936   1942     1  0.0000000  0.6508444  3
   1925   1924   1936   1937     1  0.0000000  0.6508444  3
   1925   1924   1936   1938     1  0.0000000  0.6508444  3
   1926   1924   1920   1927     1  0.0000000  0.6508444  3
   1926   1924   1920   1949     1  0.0000000  0.6508444  3
   1926   1924   1936   1942     1  0.0000000  0.6508444  3
   1926   1924   1936   1937     1  0.0000000  0.6508444  3
   1926   1924   1936   1938     1  0.0000000  0.6508444  3
   1927   1930   1939   1940     1  0.0000000  0.6508444  3
   1927   1930   1939   1941     1  0.0000000  0.6508444  3
   1928   1927   1920   1949     1  0.0000000  0.6508444  3
   1928   1927   1930   1939     1  0.0000000  0.6508444  3
   1928   1927   1930   1931     1  0.0000000  0.6508444  3
   1928   1927   1930   1932     1  0.0000000  0.6508444  3
   1929   1927   1920   1949     1  0.0000000  0.6508444  3
   1929   1927   1930   1939     1  0.0000000  0.6508444  3
   1929   1927   1930   1931     1  0.0000000  0.6508444  3
   1929   1927   1930   1932     1  0.0000000  0.6508444  3
   1930   1927   1920   1949     1  0.0000000  0.6508444  3
   1931   1930   1939   1948     1  0.0000000  1.0460000  1
   1931   1930   1939   1948     1  0.0000000  0.0000000  3
   1931   1930   1939   1940     1  0.0000000  0.6508444  3
   1931   1930   1939   1941     1  0.0000000  0.6508444  3
   1932   1930   1939   1948     1  0.0000000  1.0460000  1
   1932   1930   1939   1948     1  0.0000000  0.0000000  3
   1932   1930   1939   1940     1  0.0000000  0.6508444  3
   1932   1930   1939   1941     1  0.0000000  0.6508444  3
   1933   1921   1920   1949     1  0.0000000  0.6508444  3
   1934   1933   1945   3350     1  0.0000000  1.0460000  1
   1934   1933   1945   3350     1  0.0000000  0.0000000  3
   1934   1933   1945   1946     1  0.0000000  0.6508444  3
   1934   1933   1945   1947     1  0.0000000  0.6508444  3
   1935   1933   1945   3350     1  0.0000000  1.0460000  1
   1935   1933   1945   3350     1  0.0000000  0.0000000  3
   1935   1933   1945   1946     1  0.0000000  0.6508444  3
   1935   1933   1945   1947     1  0.0000000  0.6508444  3
   1936   1924   1920   1949     1  0.0000000  0.6508444  3
   1937   1936   1942   3336     1  0.0000000  1.0460000  1
   1937   1936   1942   3336     1  0.0000000  0.0000000  3
   1937   1936   1942   1943     1  0.0000000  0.6508444  3
   1937   1936   1942   1944     1  0.0000000  0.6508444  3
   1938   1936   1942   3336     1  0.0000000  1.0460000  1
   1938   1936   1942   3336     1  0.0000000  0.0000000  3
   1938   1936   1942   1943     1  0.0000000  0.6508444  3
   1938   1936   1942   1944     1  0.0000000  0.6508444  3
   1942   3336   3330   3331     1  0.0000000  1.6038667  3
   1942   3336   3330   3332     1  0.0000000  1.6038667  3
   1943   1942   3336   3330     1  0.0000000  1.6038667  3
   1944   1942   3336   3330     1  0.0000000  1.6038667  3
   1945   3350   3344   3345     1  0.0000000  1.6038667  3
   1945   3350   3344   3346     1  0.0000000  1.6038667  3
   1946   1945   3350   3344     1  0.0000000  1.6038667  3
   1947   1945   3350   3344     1  0.0000000  1.6038667  3
   1950   1951   1963   1964     1  0.0000000  0.6508444  3
   1950   1951   1963   1965     1  0.0000000  0.6508444  3
   1950   1954   1966   1967     1  0.0000000  0.6508444  3
   1950   1954   1966   1968     1  0.0000000  0.6508444  3
   1950   1957   1960   1961     1  0.0000000  0.6508444  3
   1950   1957   1960   1962     1  0.0000000  0.6508444  3
   1951   1950   1954   1955     1  0.0000000  0.6508444  3
   1951   1950   1954   1956     1  0.0000000  0.6508444  3
   1951   1950   1957   1958     1  0.0000000  0.6508444  3
   1951   1950   1957   1959     1  0.0000000  0.6508444  3
   1951   1963   1975   1976     1  0.0000000  0.6508444  3
   1951   1963   1975   1977     1  0.0000000  0.6508444  3
   1952   1951   1950   1954     1  0.0000000  0.6508444  3
   1952   1951   1950   1957     1  0.0000000  0.6508444  3
   1952   1951   1950   1979     1  0.0000000  0.6508444  3
   1952   1951   1963   1975     1  0.0000000  0.6508444  3
   1952   1951   1963   1964     1  0.0000000  0.6508444  3
   1952   1951   1963   1965     1  0.0000000  0.6508444  3
   1953   1951   1950   1954     1  0.0000000  0.6508444  3
   1953   1951   1950   1957     1  0.0000000  0.6508444  3
   1953   1951   1950   1979     1  0.0000000  0.6508444  3
   1953   1951   1963   1975     1  0.0000000  0.6508444  3
   1953   1951   1963   1964     1  0.0000000  0.6508444  3
   1953   1951   1963   1965     1  0.0000000  0.6508444  3
   1954   1950   1957   1958     1  0.0000000  0.6508444  3
   1954   1950   1957   1959     1  0.0000000  0.6508444  3
   1954   1966   1972   1973     1  0.0000000  0.6508444  3
   1954   1966   1972   1974     1  0.0000000  0.6508444  3
   1955   1954   1950   1957     1  0.0000000  0.6508444  3
   1955   1954   1950   1979     1  0.0000000  0.6508444  3
   1955   1954   1966   1972     1  0.0000000  0.6508444  3
   1955   1954   1966   1967     1  0.0000000  0.6508444  3
   1955   1954   1966   1968     1  0.0000000  0.6508444  3
   1956   1954   1950   1957     1  0.0000000  0.6508444  3
   1956   1954   1950   1979     1  0.0000000  0.6508444  3
   1956   1954   1966   1972     1  0.0000000  0.6508444  3
   1956   1954   1966   1967     1  0.0000000  0.6508444  3
   1956   1954   1966   1968     1  0.0000000  0.6508444  3
   1957   1960   1969   1970     1  0.0000000  0.6508444  3
   1957   1960   1969   1971     1  0.0000000  0.6508444  3
   1958   1957   1950   1979     1  0.0000000  0.6508444  3
   1958   1957   1960   1969     1  0.0000000  0.6508444  3
   1958   1957   1960   1961     1  0.0000000  0.6508444  3
   1958   1957   1960   1962     1  0.0000000  0.6508444  3
   1959   1957   1950   1979     1  0.0000000  0.6508444  3
   1959   1957   1960   1969     1  0.0000000  0.6508444  3
   1959   1957   1960   1961     1  0.0000000  0.6508444  3
   1959   1957   1960   1962     1  0.0000000  0.6508444  3
   1960   1957   1950   1979     1  0.0000000  0.6508444  3
   1961   1960   1969   1978     1  0.0000000  1.0460000  1
   1961   1960   1969   1978     1  0.0000000  0.0000000  3
   1961   1960   1969   1970     1  0.0000000  0.6508444  3
   1961   1960   1969   1971     1  0.0000000  0.6508444  3
   1962   1960   1969   1978     1  0.0000000  1.0460000  1
   1962   1960   1969   1978     1  0.0000000  0.0000000  3
   1962   1960   1969   1970     1  0.0000000  0.6508444  3
   1962   1960   1969   1971     1  0.0000000  0.6508444  3
   1963   1951   1950   1979     1  0.0000000  0.6508444  3
   1964   1963   1975   3378     1  0.0000000  1.0460000  1
   1964   1963   1975   3378     1  0.0000000  0.0000000  3
   1964   1963   1975   1976     1  0.0000000  0.6508444  3
   1964   1963   1975   1977     1  0.0000000  0.6508444  3
   1965   1963   1975   3378     1  0.0000000  1.0460000  1
   1965   1963   1975   3378     1  0.0000000  0.0000000  3
   1965   1963   1975   1976     1  0.0000000  0.6508444  3
   1965   1963   1975   1977     1  0.0000000  0.6508444  3
   1966   1954   1950   1979     1  0.0000000  0.6508444  3
   1967   1966   1972   3364     1  0.0000000  1.0460000  1
   1967   1966   1972   3364     1  0.0000000  0.0000000  3
   1967   1966   1972   1973     1  0.0000000  0.6508444  3
   1967   1966   1972   1974     1  0.0000000  0.6508444  3
   1968   1966   1972   3364     1  0.0000000  1.0460000  1
   1968   1966   1972   3364     1  0.0000000  0.0000000  3
   1968   1966   1972   1973     1  0.0000000  0.6508444  3
   1968   1966   1972   1974     1  0.0000000  0.6508444  3
   1972   3364   3358   3359     1  0.0000000  1.6038667  3
   1972   3364   3358   3360     1  0.0000000  1.6038667  3
   1973   1972   3364   3358     1  0.0000000  1.6038667  3
   1974   1972   3364   3358     1  0.0000000  1.6038667  3
   1975   3378   3372   3373     1  0.0000000  1.6038667  3
   1975   3378   3372   3374     1  0.0000000  1.6038667  3
   1976   1975   3378   3372     1  0.0000000  1.6038667  3
   1977   1975   3378   3372     1  0.0000000  1.6038667  3
   1980   1981   1993   1994     1  0.0000000  0.6508444  3
   1980   1981   1993   1995     1  0.0000000  0.6508444  3
   1980   1984   1996   1997     1  0.0000000  0.6508444  3
   1980   1984   1996   1998     1  0.0000000  0.6508444  3
   1980   1987   1990   1991     1  0.0000000  0.6508444  3
   1980   1987   1990   1992     1  0.0000000  0.6508444  3
   1981   1980   1984   1985     1  0.0000000  0.6508444  3
   1981   1980   1984   1986     1  0.0000000  0.6508444  3
   1981   1980   1987   1988     1  0.0000000  0.6508444  3
   1981   1980   1987   1989     1  0.0000000  0.6508444  3
   1981   1993   2005   2006     1  0.0000000  0.6508444  3
   1981   1993   2005   2007     1  0.0000000  0.6508444  3
   1982   1981   1980   1984     1  0.0000000  0.6508444  3
   1982   1981   1980   1987     1  0.0000000  0.6508444  3
   1982   1981   1980   2009     1  0.0000000  0.6508444  3
   1982   1981   1993   2005     1  0.0000000  0.6508444  3
   1982   1981   1993   1994     1  0.0000000  0.6508444  3
   1982   1981   1993   1995     1  0.0000000  0.6508444  3
   1983   1981   1980   1984     1  0.0000000  0.6508444  3
   1983   1981   1980   1987     1  0.0000000  0.6508444  3
   1983   1981   1980   2009     1  0.0000000  0.6508444  3
   1983   1981   1993   2005     1  0.0000000  0.6508444  3
   1983   1981   1993   1994     1  0.0000000  0.6508444  3
   1983   1981   1993   1995     1  0.0000000  0.6508444  3
   1984   1980   1987   1988     1  0.0000000  0.6508444  3
   1984   1980   1987   1989     1  0.0000000  0.6508444  3
   1984   1996   2002   2003     1  0.0000000  0.6508444  3
   1984   1996   2002   2004     1  0.0000000  0.6508444  3
   1985   1984   1980   1987     1  0.0000000  0.6508444  3
   1985   1984   1980   2009     1  0.0000000  0.6508444  3
   1985   1984   1996   2002     1  0.0000000  0.6508444  3
   1985   1984   1996   1997     1  0.0000000  0.6508444  3
   1985   1984   1996   1998     1  0.0000000  0.6508444  3
   1986   1984   1980   1987     1  0.0000000  0.6508444  3
   1986   1984   1980   2009     1  0.0000000  0.6508444  3
   1986   1984   1996   2002     1  0.0000000  0.6508444  3
   1986   1984   1996   1997     1  0.0000000  0.6508444  3
   1986   1984   1996   1998     1  0.0000000  0.6508444  3
   1987   1990   1999   2000     1  0.0000000  0.6508444  3
   1987   1990   1999   2001     1  0.0000000  0.6508444  3
   1988   1987   1980   2009     1  0.0000000  0.6508444  3
   1988   1987   1990   1999     1  0.0000000  0.6508444  3
   1988   1987   1990   1991     1  0.0000000  0.6508444  3
   1988   1987   1990   1992     1  0.0000000  0.6508444  3
   1989   1987   1980   2009     1  0.0000000  0.6508444  3
   1989   1987   1990   1999     1  0.0000000  0.6508444  3
   1989   1987   1990   1991     1  0.0000000  0.6508444  3
   1989   1987   1990   1992     1  0.0000000  0.6508444  3
   1990   1987   1980   2009     1  0.0000000  0.6508444  3
   1991   1990   1999   2008     1  0.0000000  1.0460000  1
   1991   1990   1999   2008     1  0.0000000  0.0000000  3
   1991   1990   1999   2000     1  0.0000000  0.6508444  3
   1991   1990   1999   2001     1  0.0000000  0.6508444  3
   1992   1990   1999   2008     1  0.0000000  1.0460000  1
   1992   1990   1999   2008     1  0.0000000  0.0000000  3
   1992   1990   1999   2000     1  0.0000000  0.6508444  3
   1992   1990   1999   2001     1  0.0000000  0.6508444  3
   1993   1981   1980   2009     1  0.0000000  0.6508444  3
   1994   1993   2005   3406     1  0.0000000  1.0460000  1
   1994   1993   2005   3406     1  0.0000000  0.0000000  3
   1994   1993   2005   2006     1  0.0000000  0.6508444  3
   1994   1993   2005   2007     1  0.0000000  0.6508444  3
   1995   1993   2005   3406     1  0.0000000  1.0460000  1
   1995   1993   2005   3406     1  0.0000000  0.0000000  3
   1995   1993   2005   2006     1  0.0000000  0.6508444  3
   1995   1993   2005   2007     1  0.0000000  0.6508444  3
   1996   1984   1980   2009     1  0.0000000  0.6508444  3
   1997   1996   2002   3392     1  0.0000000  1.0460000  1
   1997   1996   2002   3392     1  0.0000000  0.0000000  3
   1997   1996   2002   2003     1  0.0000000  0.6508444  3
   1997   1996   2002   2004     1  0.0000000  0.6508444  3
   1998   1996   2002   3392     1  0.0000000  1.0460000  1
   1998   1996   2002   3392     1  0.0000000  0.0000000  3
   1998   1996   2002   2003     1  0.0000000  0.6508444  3
   1998   1996   2002   2004     1  0.0000000  0.6508444  3
   2002   3392   3386   3387     1  0.0000000  1.6038667  3
   2002   3392   3386   3388     1  0.0000000  1.6038667  3
   2003   2002   3392   3386     1  0.0000000  1.6038667  3
   2004   2002   3392   3386     1  0.0000000  1.6038667  3
   2005   3406   3400   3401     1  0.0000000  1.6038667  3
   2005   3406   3400   3402     1  0.0000000  1.6038667  3
   2006   2005   3406   3400     1  0.0000000  1.6038667  3
   2007   2005   3406   3400     1  0.0000000  1.6038667  3
   2010   2011   2023   2024     1  0.0000000  0.6508444  3
   2010   2011   2023   2025     1  0.0000000  0.6508444  3
   2010   2014   2026   2027     1  0.0000000  0.6508444  3
   2010   2014   2026   2028     1  0.0000000  0.6508444  3
   2010   2017   2020   2021     1  0.0000000  0.6508444  3
   2010   2017   2020   2022     1  0.0000000  0.6508444  3
   2011   2010   2014   2015     1  0.0000000  0.6508444  3
   2011   2010   2014   2016     1  0.0000000  0.6508444  3
   2011   2010   2017   2018     1  0.0000000  0.6508444  3
   2011   2010   2017   2019     1  0.0000000  0.6508444  3
   2011   2023   2035   2036     1  0.0000000  0.6508444  3
   2011   2023   2035   2037     1  0.0000000  0.6508444  3
   2012   2011   2010   2014     1  0.0000000  0.6508444  3
   2012   2011   2010   2017     1  0.0000000  0.6508444  3
   2012   2011   2010   2039     1  0.0000000  0.6508444  3
   2012   2011   2023   2035     1  0.0000000  0.6508444  3
   2012   2011   2023   2024     1  0.0000000  0.6508444  3
   2012   2011   2023   2025     1  0.0000000  0.6508444  3
   2013   2011   2010   2014     1  0.0000000  0.6508444  3
   2013   2011   2010   2017     1  0.0000000  0.6508444  3
   2013   2011   2010   2039     1  0.0000000  0.6508444  3
   2013   2011   2023   2035     1  0.0000000  0.6508444  3
   2013   2011   2023   2024     1  0.0000000  0.6508444  3
   2013   2011   2023   2025     1  0.0000000  0.6508444  3
   2014   2010   2017   2018     1  0.0000000  0.6508444  3
   2014   2010   2017   2019     1  0.0000000  0.6508444  3
   2014   2026   2032   2033     1  0.0000000  0.6508444  3
   2014   2026   2032   2034     1  0.0000000  0.6508444  3
   2015   2014   2010   2017     1  0.0000000  0.6508444  3
   2015   2014   2010   2039     1  0.0000000  0.6508444  3
   2015   2014   2026   2032     1  0.0000000  0.6508444  3
   2015   2014   2026   2027     1  0.0000000  0.6508444  3
   2015   2014   2026   2028     1  0.0000000  0.6508444  3
   2016   2014   2010   2017     1  0.0000000  0.6508444  3
   2016   2014   2010   2039     1  0.0000000  0.6508444  3
   2016   2014   2026   2032     1  0.0000000  0.6508444  3
   2016   2014   2026   2027     1  0.0000000  0.6508444  3
   2016   2014   2026   2028     1  0.0000000  0.6508444  3
   2017   2020   2029   2030     1  0.0000000  0.6508444  3
   2017   2020   2029   2031     1  0.0000000  0.6508444  3
   2018   2017   2010   2039     1  0.0000000  0.6508444  3
   2018   2017   2020   2029     1  0.0000000  0.6508444  3
   2018   2017   2020   2021     1  0.0000000  0.6508444  3
   2018   2017   2020   2022     1  0.0000000  0.6508444  3
   2019   2017   2010   2039     1  0.0000000  0.6508444  3
   2019   2017   2020   2029     1  0.0000000  0.6508444  3
   2019   2017   2020   2021     1  0.0000000  0.6508444  3
   2019   2017   2020   2022     1  0.0000000  0.6508444  3
   2020   2017   2010   2039     1  0.0000000  0.6508444  3
   2021   2020   2029   2038     1  0.0000000  1.0460000  1
   2021   2020   2029   2038     1  0.0000000  0.0000000  3
   2021   2020   2029   2030     1  0.0000000  0.6508444  3
   2021   2020   2029   2031     1  0.0000000  0.6508444  3
   2022   2020   2029   2038     1  0.0000000  1.0460000  1
   2022   2020   2029   2038     1  0.0000000  0.0000000  3
   2022   2020   2029   2030     1  0.0000000  0.6508444  3
   2022   2020   2029   2031     1  0.0000000  0.6508444  3
   2023   2011   2010   2039     1  0.0000000  0.6508444  3
   2024   2023   2035   3434     1  0.0000000  1.0460000  1
   2024   2023   2035   3434     1  0.0000000  0.0000000  3
   2024   2023   2035   2036     1  0.0000000  0.6508444  3
   2024   2023   2035   2037     1  0.0000000  0.6508444  3
   2025   2023   2035   3434     1  0.0000000  1.0460000  1
   2025   2023   2035   3434     1  0.0000000  0.0000000  3
   2025   2023   2035   2036     1  0.0000000  0.6508444  3
   2025   2023   2035   2037     1  0.0000000  0.6508444  3
   2026   2014   2010   2039     1  0.0000000  0.6508444  3
   2027   2026   2032   3420     1  0.0000000  1.0460000  1
   2027   2026   2032   3420     1  0.0000000  0.0000000  3
   2027   2026   2032   2033     1  0.0000000  0.6508444  3
   2027   2026   2032   2034     1  0.0000000  0.6508444  3
   2028   2026   2032   3420     1  0.0000000  1.0460000  1
   2028   2026   2032   3420     1  0.0000000  0.0000000  3
   2028   2026   2032   2033     1  0.0000000  0.6508444  3
   2028   2026   2032   2034     1  0.0000000  0.6508444  3
   2032   3420   3414   3415     1  0.0000000  1.6038667  3
   2032   3420   3414   3416     1  0.0000000  1.6038667  3
   2033   2032   3420   3414     1  0.0000000  1.6038667  3
   2034   2032   3420   3414     1  0.0000000  1.6038667  3
   2035   3434   3428   3429     1  0.0000000  1.6038667  3
   2035   3434   3428   3430     1  0.0000000  1.6038667  3
   2036   2035   3434   3428     1  0.0000000  1.6038667  3
   2037   2035   3434   3428     1  0.0000000  1.6038667  3
   2040   2041   2053   2054     1  0.0000000  0.6508444  3
   2040   2041   2053   2055     1  0.0000000  0.6508444  3
   2040   2044   2056   2057     1  0.0000000  0.6508444  3
   2040   2044   2056   2058     1  0.0000000  0.6508444  3
   2040   2047   2050   2051     1  0.0000000  0.6508444  3
   2040   2047   2050   2052     1  0.0000000  0.6508444  3
   2041   2040   2044   2045     1  0.0000000  0.6508444  3
   2041   2040   2044   2046     1  0.0000000  0.6508444  3
   2041   2040   2047   2048     1  0.0000000  0.6508444  3
   2041   2040   2047   2049     1  0.0000000  0.6508444  3
   2041   2053   2065   2066     1  0.0000000  0.6508444  3
   2041   2053   2065   2067     1  0.0000000  0.6508444  3
   2042   2041   2040   2044     1  0.0000000  0.6508444  3
   2042   2041   2040   2047     1  0.0000000  0.6508444  3
   2042   2041   2040   2069     1  0.0000000  0.6508444  3
   2042   2041   2053   2065     1  0.0000000  0.6508444  3
   2042   2041   2053   2054     1  0.0000000  0.6508444  3
   2042   2041   2053   2055     1  0.0000000  0.6508444  3
   2043   2041   2040   2044     1  0.0000000  0.6508444  3
   2043   2041   2040   2047     1  0.0000000  0.6508444  3
   2043   2041   2040   2069     1  0.0000000  0.6508444  3
   2043   2041   2053   2065     1  0.0000000  0.6508444  3
   2043   2041   2053   2054     1  0.0000000  0.6508444  3
   2043   2041   2053   2055     1  0.0000000  0.6508444  3
   2044   2040   2047   2048     1  0.0000000  0.6508444  3
   2044   2040   2047   2049     1  0.0000000  0.6508444  3
   2044   2056   2062   2063     1  0.0000000  0.6508444  3
   2044   2056   2062   2064     1  0.0000000  0.6508444  3
   2045   2044   2040   2047     1  0.0000000  0.6508444  3
   2045   2044   2040   2069     1  0.0000000  0.6508444  3
   2045   2044   2056   2062     1  0.0000000  0.6508444  3
   2045   2044   2056   2057     1  0.0000000  0.6508444  3
   2045   2044   2056   2058     1  0.0000000  0.6508444  3
   2046   2044   2040   2047     1  0.0000000  0.6508444  3
   2046   2044   2040   2069     1  0.0000000  0.6508444  3
   2046   2044   2056   2062     1  0.0000000  0.6508444  3
   2046   2044   2056   2057     1  0.0000000  0.6508444  3
   2046   2044   2056   2058     1  0.0000000  0.6508444  3
   2047   2050   2059   2060     1  0.0000000  0.6508444  3
   2047   2050   2059   2061     1  0.0000000  0.6508444  3
   2048   2047   2040   2069     1  0.0000000  0.6508444  3
   2048   2047   2050   2059     1  0.0000000  0.6508444  3
   2048   2047   2050   2051     1  0.0000000  0.6508444  3
   2048   2047   2050   2052     1  0.0000000  0.6508444  3
   2049   2047   2040   2069     1  0.0000000  0.6508444  3
   2049   2047   2050   2059     1  0.0000000  0.6508444  3
   2049   2047   2050   2051     1  0.0000000  0.6508444  3
   2049   2047   2050   2052     1  0.0000000  0.6508444  3
   2050   2047   2040   2069     1  0.0000000  0.6508444  3
   2051   2050   2059   2068     1  0.0000000  1.0460000  1
   2051   2050   2059   2068     1  0.0000000  0.0000000  3
   2051   2050   2059   2060     1  0.0000000  0.6508444  3
   2051   2050   2059   2061     1  0.0000000  0.6508444  3
   2052   2050   2059   2068     1  0.0000000  1.0460000  1
   2052   2050   2059   2068     1  0.0000000  0.0000000  3
   2052   2050   2059   2060     1  0.0000000  0.6508444  3
   2052   2050   2059   2061     1  0.0000000  0.6508444  3
   2053   2041   2040   2069     1  0.0000000  0.6508444  3
   2054   2053   2065   3462     1  0.0000000  1.0460000  1
   2054   2053   2065   3462     1  0.0000000  0.0000000  3
   2054   2053   2065   2066     1  0.0000000  0.6508444  3
   2054   2053   2065   2067     1  0.0000000  0.6508444  3
   2055   2053   2065   3462     1  0.0000000  1.0460000  1
   2055   2053   2065   3462     1  0.0000000  0.0000000  3
   2055   2053   2065   2066     1  0.0000000  0.6508444  3
   2055   2053   2065   2067     1  0.0000000  0.6508444  3
   2056   2044   2040   2069     1  0.0000000  0.6508444  3
   2057   2056   2062   3448     1  0.0000000  1.0460000  1
   2057   2056   2062   3448     1  0.0000000  0.0000000  3
   2057   2056   2062   2063     1  0.0000000  0.6508444  3
   2057   2056   2062   2064     1  0.0000000  0.6508444  3
   2058   2056   2062   3448     1  0.0000000  1.0460000  1
   2058   2056   2062   3448     1  0.0000000  0.0000000  3
   2058   2056   2062   2063     1  0.0000000  0.6508444  3
   2058   2056   2062   2064     1  0.0000000  0.6508444  3
   2062   3448   3442   3443     1  0.0000000  1.6038667  3
   2062   3448   3442   3444     1  0.0000000  1.6038667  3
   2063   2062   3448   3442     1  0.0000000  1.6038667  3
   2064   2062   3448   3442     1  0.0000000  1.6038667  3
   2065   3462   3456   3457     1  0.0000000  1.6038667  3
   2065   3462   3456   3458     1  0.0000000  1.6038667  3
   2066   2065   3462   3456     1  0.0000000  1.6038667  3
   2067   2065   3462   3456     1  0.0000000  1.6038667  3
   2070   2071   2083   2084     1  0.0000000  0.6508444  3
   2070   2071   2083   2085     1  0.0000000  0.6508444  3
   2070   2074   2086   2087     1  0.0000000  0.6508444  3
   2070   2074   2086   2088     1  0.0000000  0.6508444  3
   2070   2077   2080   2081     1  0.0000000  0.6508444  3
   2070   2077   2080   2082     1  0.0000000  0.6508444  3
   2071   2070   2074   2075     1  0.0000000  0.6508444  3
   2071   2070   2074   2076     1  0.0000000  0.6508444  3
   2071   2070   2077   2078     1  0.0000000  0.6508444  3
   2071   2070   2077   2079     1  0.0000000  0.6508444  3
   2071   2083   2095   2096     1  0.0000000  0.6508444  3
   2071   2083   2095   2097     1  0.0000000  0.6508444  3
   2072   2071   2070   2074     1  0.0000000  0.6508444  3
   2072   2071   2070   2077     1  0.0000000  0.6508444  3
   2072   2071   2070   2099     1  0.0000000  0.6508444  3
   2072   2071   2083   2095     1  0.0000000  0.6508444  3
   2072   2071   2083   2084     1  0.0000000  0.6508444  3
   2072   2071   2083   2085     1  0.0000000  0.6508444  3
   2073   2071   2070   2074     1  0.0000000  0.6508444  3
   2073   2071   2070   2077     1  0.0000000  0.6508444  3
   2073   2071   2070   2099     1  0.0000000  0.6508444  3
   2073   2071   2083   2095     1  0.0000000  0.6508444  3
   2073   2071   2083   2084     1  0.0000000  0.6508444  3
   2073   2071   2083   2085     1  0.0000000  0.6508444  3
   2074   2070   2077   2078     1  0.0000000  0.6508444  3
   2074   2070   2077   2079     1  0.0000000  0.6508444  3
   2074   2086   2092   2093     1  0.0000000  0.6508444  3
   2074   2086   2092   2094     1  0.0000000  0.6508444  3
   2075   2074   2070   2077     1  0.0000000  0.6508444  3
   2075   2074   2070   2099     1  0.0000000  0.6508444  3
   2075   2074   2086   2092     1  0.0000000  0.6508444  3
   2075   2074   2086   2087     1  0.0000000  0.6508444  3
   2075   2074   2086   2088     1  0.0000000  0.6508444  3
   2076   2074   2070   2077     1  0.0000000  0.6508444  3
   2076   2074   2070   2099     1  0.0000000  0.6508444  3
   2076   2074   2086   2092     1  0.0000000  0.6508444  3
   2076   2074   2086   2087     1  0.0000000  0.6508444  3
   2076   2074   2086   2088     1  0.0000000  0.6508444  3
   2077   2080   2089   2090     1  0.0000000  0.6508444  3
   2077   2080   2089   2091     1  0.0000000  0.6508444  3
   2078   2077   2070   2099     1  0.0000000  0.6508444  3
   2078   2077   2080   2089     1  0.0000000  0.6508444  3
   2078   2077   2080   2081     1  0.0000000  0.6508444  3
   2078   2077   2080   2082     1  0.0000000  0.6508444  3
   2079   2077   2070   2099     1  0.0000000  0.6508444  3
   2079   2077   2080   2089     1  0.0000000  0.6508444  3
   2079   2077   2080   2081     1  0.0000000  0.6508444  3
   2079   2077   2080   2082     1  0.0000000  0.6508444  3
   2080   2077   2070   2099     1  0.0000000  0.6508444  3
   2081   2080   2089   2098     1  0.0000000  1.0460000  1
   2081   2080   2089   2098     1  0.0000000  0.0000000  3
   2081   2080   2089   2090     1  0.0000000  0.6508444  3
   2081   2080   2089   2091     1  0.0000000  0.6508444  3
   2082   2080   2089   2098     1  0.0000000  1.0460000  1
   2082   2080   2089   2098     1  0.0000000  0.0000000  3
   2082   2080   2089   2090     1  0.0000000  0.6508444  3
   2082   2080   2089   2091     1  0.0000000  0.6508444  3
   2083   2071   2070   2099     1  0.0000000  0.6508444  3
   2084   2083   2095   3490     1  0.0000000  1.0460000  1
   2084   2083   2095   3490     1  0.0000000  0.0000000  3
   2084   2083   2095   2096     1  0.0000000  0.6508444  3
   2084   2083   2095   2097     1  0.0000000  0.6508444  3
   2085   2083   2095   3490     1  0.0000000  1.0460000  1
   2085   2083   2095   3490     1  0.0000000  0.0000000  3
   2085   2083   2095   2096     1  0.0000000  0.6508444  3
   2085   2083   2095   2097     1  0.0000000  0.6508444  3
   2086   2074   2070   2099     1  0.0000000  0.6508444  3
   2087   2086   2092   3476     1  0.0000000  1.0460000  1
   2087   2086   2092   3476     1  0.0000000  0.0000000  3
   2087   2086   2092   2093     1  0.0000000  0.6508444  3
   2087   2086   2092   2094     1  0.0000000  0.6508444  3
   2088   2086   2092   3476     1  0.0000000  1.0460000  1
   2088   2086   2092   3476     1  0.0000000  0.0000000  3
   2088   2086   2092   2093     1  0.0000000  0.6508444  3
   2088   2086   2092   2094     1  0.0000000  0.6508444  3
   2092   3476   3470   3471     1  0.0000000  1.6038667  3
   2092   3476   3470   3472     1  0.0000000  1.6038667  3
   2093   2092   3476   3470     1  0.0000000  1.6038667  3
   2094   2092   3476   3470     1  0.0000000  1.6038667  3
   2095   3490   3484   3485     1  0.0000000  1.6038667  3
   2095   3490   3484   3486     1  0.0000000  1.6038667  3
   2096   2095   3490   3484     1  0.0000000  1.6038667  3
   2097   2095   3490   3484     1  0.0000000  1.6038667  3
   2100   2101   2113   2114     1  0.0000000  0.6508444  3
   2100   2101   2113   2115     1  0.0000000  0.6508444  3
   2100   2104   2116   2117     1  0.0000000  0.6508444  3
   2100   2104   2116   2118     1  0.0000000  0.6508444  3
   2100   2107   2110   2111     1  0.0000000  0.6508444  3
   2100   2107   2110   2112     1  0.0000000  0.6508444  3
   2101   2100   2104   2105     1  0.0000000  0.6508444  3
   2101   2100   2104   2106     1  0.0000000  0.6508444  3
   2101   2100   2107   2108     1  0.0000000  0.6508444  3
   2101   2100   2107   2109     1  0.0000000  0.6508444  3
   2101   2113   2125   2126     1  0.0000000  0.6508444  3
   2101   2113   2125   2127     1  0.0000000  0.6508444  3
   2102   2101   2100   2104     1  0.0000000  0.6508444  3
   2102   2101   2100   2107     1  0.0000000  0.6508444  3
   2102   2101   2100   2129     1  0.0000000  0.6508444  3
   2102   2101   2113   2125     1  0.0000000  0.6508444  3
   2102   2101   2113   2114     1  0.0000000  0.6508444  3
   2102   2101   2113   2115     1  0.0000000  0.6508444  3
   2103   2101   2100   2104     1  0.0000000  0.6508444  3
   2103   2101   2100   2107     1  0.0000000  0.6508444  3
   2103   2101   2100   2129     1  0.0000000  0.6508444  3
   2103   2101   2113   2125     1  0.0000000  0.6508444  3
   2103   2101   2113   2114     1  0.0000000  0.6508444  3
   2103   2101   2113   2115     1  0.0000000  0.6508444  3
   2104   2100   2107   2108     1  0.0000000  0.6508444  3
   2104   2100   2107   2109     1  0.0000000  0.6508444  3
   2104   2116   2122   2123     1  0.0000000  0.6508444  3
   2104   2116   2122   2124     1  0.0000000  0.6508444  3
   2105   2104   2100   2107     1  0.0000000  0.6508444  3
   2105   2104   2100   2129     1  0.0000000  0.6508444  3
   2105   2104   2116   2122     1  0.0000000  0.6508444  3
   2105   2104   2116   2117     1  0.0000000  0.6508444  3
   2105   2104   2116   2118     1  0.0000000  0.6508444  3
   2106   2104   2100   2107     1  0.0000000  0.6508444  3
   2106   2104   2100   2129     1  0.0000000  0.6508444  3
   2106   2104   2116   2122     1  0.0000000  0.6508444  3
   2106   2104   2116   2117     1  0.0000000  0.6508444  3
   2106   2104   2116   2118     1  0.0000000  0.6508444  3
   2107   2110   2119   2120     1  0.0000000  0.6508444  3
   2107   2110   2119   2121     1  0.0000000  0.6508444  3
   2108   2107   2100   2129     1  0.0000000  0.6508444  3
   2108   2107   2110   2119     1  0.0000000  0.6508444  3
   2108   2107   2110   2111     1  0.0000000  0.6508444  3
   2108   2107   2110   2112     1  0.0000000  0.6508444  3
   2109   2107   2100   2129     1  0.0000000  0.6508444  3
   2109   2107   2110   2119     1  0.0000000  0.6508444  3
   2109   2107   2110   2111     1  0.0000000  0.6508444  3
   2109   2107   2110   2112     1  0.0000000  0.6508444  3
   2110   2107   2100   2129     1  0.0000000  0.6508444  3
   2111   2110   2119   2128     1  0.0000000  1.0460000  1
   2111   2110   2119   2128     1  0.0000000  0.0000000  3
   2111   2110   2119   2120     1  0.0000000  0.6508444  3
   2111   2110   2119   2121     1  0.0000000  0.6508444  3
   2112   2110   2119   2128     1  0.0000000  1.0460000  1
   2112   2110   2119   2128     1  0.0000000  0.0000000  3
   2112   2110   2119   2120     1  0.0000000  0.6508444  3
   2112   2110   2119   2121     1  0.0000000  0.6508444  3
   2113   2101   2100   2129     1  0.0000000  0.6508444  3
   2114   2113   2125   3518     1  0.0000000  1.0460000  1
   2114   2113   2125   3518     1  0.0000000  0.0000000  3
   2114   2113   2125   2126     1  0.0000000  0.6508444  3
   2114   2113   2125   2127     1  0.0000000  0.6508444  3
   2115   2113   2125   3518     1  0.0000000  1.0460000  1
   2115   2113   2125   3518     1  0.0000000  0.0000000  3
   2115   2113   2125   2126     1  0.0000000  0.6508444  3
   2115   2113   2125   2127     1  0.0000000  0.6508444  3
   2116   2104   2100   2129     1  0.0000000  0.6508444  3
   2117   2116   2122   3504     1  0.0000000  1.0460000  1
   2117   2116   2122   3504     1  0.0000000  0.0000000  3
   2117   2116   2122   2123     1  0.0000000  0.6508444  3
   2117   2116   2122   2124     1  0.0000000  0.6508444  3
   2118   2116   2122   3504     1  0.0000000  1.0460000  1
   2118   2116   2122   3504     1  0.0000000  0.0000000  3
   2118   2116   2122   2123     1  0.0000000  0.6508444  3
   2118   2116   2122   2124     1  0.0000000  0.6508444  3
   2122   3504   3498   3499     1  0.0000000  1.6038667  3
   2122   3504   3498   3500     1  0.0000000  1.6038667  3
   2123   2122   3504   3498     1  0.0000000  1.6038667  3
   2124   2122   3504   3498     1  0.0000000  1.6038667  3
   2125   3518   3512   3513     1  0.0000000  1.6038667  3
   2125   3518   3512   3514     1  0.0000000  1.6038667  3
   2126   2125   3518   3512     1  0.0000000  1.6038667  3
   2127   2125   3518   3512     1  0.0000000  1.6038667  3
   2130   2131   2143   2144     1  0.0000000  0.6508444  3
   2130   2131   2143   2145     1  0.0000000  0.6508444  3
   2130   2134   2146   2147     1  0.0000000  0.6508444  3
   2130   2134   2146   2148     1  0.0000000  0.6508444  3
   2130   2137   2140   2141     1  0.0000000  0.6508444  3
   2130   2137   2140   2142     1  0.0000000  0.6508444  3
   2131   2130   2134   2135     1  0.0000000  0.6508444  3
   2131   2130   2134   2136     1  0.0000000  0.6508444  3
   2131   2130   2137   2138     1  0.0000000  0.6508444  3
   2131   2130   2137   2139     1  0.0000000  0.6508444  3
   2131   2143   2155   2156     1  0.0000000  0.6508444  3
   2131   2143   2155   2157     1  0.0000000  0.6508444  3
   2132   2131   2130   2134     1  0.0000000  0.6508444  3
   2132   2131   2130   2137     1  0.0000000  0.6508444  3
   2132   2131   2130   2159     1  0.0000000  0.6508444  3
   2132   2131   2143   2155     1  0.0000000  0.6508444  3
   2132   2131   2143   2144     1  0.0000000  0.6508444  3
   2132   2131   2143   2145     1  0.0000000  0.6508444  3
   2133   2131   2130   2134     1  0.0000000  0.6508444  3
   2133   2131   2130   2137     1  0.0000000  0.6508444  3
   2133   2131   2130   2159     1  0.0000000  0.6508444  3
   2133   2131   2143   2155     1  0.0000000  0.6508444  3
   2133   2131   2143   2144     1  0.0000000  0.6508444  3
   2133   2131   2143   2145     1  0.0000000  0.6508444  3
   2134   2130   2137   2138     1  0.0000000  0.6508444  3
   2134   2130   2137   2139     1  0.0000000  0.6508444  3
   2134   2146   2152   2153     1  0.0000000  0.6508444  3
   2134   2146   2152   2154     1  0.0000000  0.6508444  3
   2135   2134   2130   2137     1  0.0000000  0.6508444  3
   2135   2134   2130   2159     1  0.0000000  0.6508444  3
   2135   2134   2146   2152     1  0.0000000  0.6508444  3
   2135   2134   2146   2147     1  0.0000000  0.6508444  3
   2135   2134   2146   2148     1  0.0000000  0.6508444  3
   2136   2134   2130   2137     1  0.0000000  0.6508444  3
   2136   2134   2130   2159     1  0.0000000  0.6508444  3
   2136   2134   2146   2152     1  0.0000000  0.6508444  3
   2136   2134   2146   2147     1  0.0000000  0.6508444  3
   2136   2134   2146   2148     1  0.0000000  0.6508444  3
   2137   2140   2149   2150     1  0.0000000  0.6508444  3
   2137   2140   2149   2151     1  0.0000000  0.6508444  3
   2138   2137   2130   2159     1  0.0000000  0.6508444  3
   2138   2137   2140   2149     1  0.0000000  0.6508444  3
   2138   2137   2140   2141     1  0.0000000  0.6508444  3
   2138   2137   2140   2142     1  0.0000000  0.6508444  3
   2139   2137   2130   2159     1  0.0000000  0.6508444  3
   2139   2137   2140   2149     1  0.0000000  0.6508444  3
   2139   2137   2140   2141     1  0.0000000  0.6508444  3
   2139   2137   2140   2142     1  0.0000000  0.6508444  3
   2140   2137   2130   2159     1  0.0000000  0.6508444  3
   2141   2140   2149   2158     1  0.0000000  1.0460000  1
   2141   2140   2149   2158     1  0.0000000  0.0000000  3
   2141   2140   2149   2150     1  0.0000000  0.6508444  3
   2141   2140   2149   2151     1  0.0000000  0.6508444  3
   2142   2140   2149   2158     1  0.0000000  1.0460000  1
   2142   2140   2149   2158     1  0.0000000  0.0000000  3
   2142   2140   2149   2150     1  0.0000000  0.6508444  3
   2142   2140   2149   2151     1  0.0000000  0.6508444  3
   2143   2131   2130   2159     1  0.0000000  0.6508444  3
   2144   2143   2155   3546     1  0.0000000  1.0460000  1
   2144   2143   2155   3546     1  0.0000000  0.0000000  3
   2144   2143   2155   2156     1  0.0000000  0.6508444  3
   2144   2143   2155   2157     1  0.0000000  0.6508444  3
   2145   2143   2155   3546     1  0.0000000  1.0460000  1
   2145   2143   2155   3546     1  0.0000000  0.0000000  3
   2145   2143   2155   2156     1  0.0000000  0.6508444  3
   2145   2143   2155   2157     1  0.0000000  0.6508444  3
   2146   2134   2130   2159     1  0.0000000  0.6508444  3
   2147   2146   2152   3532     1  0.0000000  1.0460000  1
   2147   2146   2152   3532     1  0.0000000  0.0000000  3
   2147   2146   2152   2153     1  0.0000000  0.6508444  3
   2147   2146   2152   2154     1  0.0000000  0.6508444  3
   2148   2146   2152   3532     1  0.0000000  1.0460000  1
   2148   2146   2152   3532     1  0.0000000  0.0000000  3
   2148   2146   2152   2153     1  0.0000000  0.6508444  3
   2148   2146   2152   2154     1  0.0000000  0.6508444  3
   2152   3532   3526   3527     1  0.0000000  1.6038667  3
   2152   3532   3526   3528     1  0.0000000  1.6038667  3
   2153   2152   3532   3526     1  0.0000000  1.6038667  3
   2154   2152   3532   3526     1  0.0000000  1.6038667  3
   2155   3546   3540   3541     1  0.0000000  1.6038667  3
   2155   3546   3540   3542     1  0.0000000  1.6038667  3
   2156   2155   3546   3540     1  0.0000000  1.6038667  3
   2157   2155   3546   3540     1  0.0000000  1.6038667  3
   2160   2161   2173   2174     1  0.0000000  0.6508444  3
   2160   2161   2173   2175     1  0.0000000  0.6508444  3
   2160   2164   2176   2177     1  0.0000000  0.6508444  3
   2160   2164   2176   2178     1  0.0000000  0.6508444  3
   2160   2167   2170   2171     1  0.0000000  0.6508444  3
   2160   2167   2170   2172     1  0.0000000  0.6508444  3
   2161   2160   2164   2165     1  0.0000000  0.6508444  3
   2161   2160   2164   2166     1  0.0000000  0.6508444  3
   2161   2160   2167   2168     1  0.0000000  0.6508444  3
   2161   2160   2167   2169     1  0.0000000  0.6508444  3
   2161   2173   2185   2186     1  0.0000000  0.6508444  3
   2161   2173   2185   2187     1  0.0000000  0.6508444  3
   2162   2161   2160   2164     1  0.0000000  0.6508444  3
   2162   2161   2160   2167     1  0.0000000  0.6508444  3
   2162   2161   2160   2189     1  0.0000000  0.6508444  3
   2162   2161   2173   2185     1  0.0000000  0.6508444  3
   2162   2161   2173   2174     1  0.0000000  0.6508444  3
   2162   2161   2173   2175     1  0.0000000  0.6508444  3
   2163   2161   2160   2164     1  0.0000000  0.6508444  3
   2163   2161   2160   2167     1  0.0000000  0.6508444  3
   2163   2161   2160   2189     1  0.0000000  0.6508444  3
   2163   2161   2173   2185     1  0.0000000  0.6508444  3
   2163   2161   2173   2174     1  0.0000000  0.6508444  3
   2163   2161   2173   2175     1  0.0000000  0.6508444  3
   2164   2160   2167   2168     1  0.0000000  0.6508444  3
   2164   2160   2167   2169     1  0.0000000  0.6508444  3
   2164   2176   2182   2183     1  0.0000000  0.6508444  3
   2164   2176   2182   2184     1  0.0000000  0.6508444  3
   2165   2164   2160   2167     1  0.0000000  0.6508444  3
   2165   2164   2160   2189     1  0.0000000  0.6508444  3
   2165   2164   2176   2182     1  0.0000000  0.6508444  3
   2165   2164   2176   2177     1  0.0000000  0.6508444  3
   2165   2164   2176   2178     1  0.0000000  0.6508444  3
   2166   2164   2160   2167     1  0.0000000  0.6508444  3
   2166   2164   2160   2189     1  0.0000000  0.6508444  3
   2166   2164   2176   2182     1  0.0000000  0.6508444  3
   2166   2164   2176   2177     1  0.0000000  0.6508444  3
   2166   2164   2176   2178     1  0.0000000  0.6508444  3
   2167   2170   2179   2180     1  0.0000000  0.6508444  3
   2167   2170   2179   2181     1  0.0000000  0.6508444  3
   2168   2167   2160   2189     1  0.0000000  0.6508444  3
   2168   2167   2170   2179     1  0.0000000  0.6508444  3
   2168   2167   2170   2171     1  0.0000000  0.6508444  3
   2168   2167   2170   2172     1  0.0000000  0.6508444  3
   2169   2167   2160   2189     1  0.0000000  0.6508444  3
   2169   2167   2170   2179     1  0.0000000  0.6508444  3
   2169   2167   2170   2171     1  0.0000000  0.6508444  3
   2169   2167   2170   2172     1  0.0000000  0.6508444  3
   2170   2167   2160   2189     1  0.0000000  0.6508444  3
   2171   2170   2179   2188     1  0.0000000  1.0460000  1
   2171   2170   2179   2188     1  0.0000000  0.0000000  3
   2171   2170   2179   2180     1  0.0000000  0.6508444  3
   2171   2170   2179   2181     1  0.0000000  0.6508444  3
   2172   2170   2179   2188     1  0.0000000  1.0460000  1
   2172   2170   2179   2188     1  0.0000000  0.0000000  3
   2172   2170   2179   2180     1  0.0000000  0.6508444  3
   2172   2170   2179   2181     1  0.0000000  0.6508444  3
   2173   2161   2160   2189     1  0.0000000  0.6508444  3
   2174   2173   2185   3574     1  0.0000000  1.0460000  1
   2174   2173   2185   3574     1  0.0000000  0.0000000  3
   2174   2173   2185   2186     1  0.0000000  0.6508444  3
   2174   2173   2185   2187     1  0.0000000  0.6508444  3
   2175   2173   2185   3574     1  0.0000000  1.0460000  1
   2175   2173   2185   3574     1  0.0000000  0.0000000  3
   2175   2173   2185   2186     1  0.0000000  0.6508444  3
   2175   2173   2185   2187     1  0.0000000  0.6508444  3
   2176   2164   2160   2189     1  0.0000000  0.6508444  3
   2177   2176   2182   3560     1  0.0000000  1.0460000  1
   2177   2176   2182   3560     1  0.0000000  0.0000000  3
   2177   2176   2182   2183     1  0.0000000  0.6508444  3
   2177   2176   2182   2184     1  0.0000000  0.6508444  3
   2178   2176   2182   3560     1  0.0000000  1.0460000  1
   2178   2176   2182   3560     1  0.0000000  0.0000000  3
   2178   2176   2182   2183     1  0.0000000  0.6508444  3
   2178   2176   2182   2184     1  0.0000000  0.6508444  3
   2182   3560   3554   3555     1  0.0000000  1.6038667  3
   2182   3560   3554   3556     1  0.0000000  1.6038667  3
   2183   2182   3560   3554     1  0.0000000  1.6038667  3
   2184   2182   3560   3554     1  0.0000000  1.6038667  3
   2185   3574   3568   3569     1  0.0000000  1.6038667  3
   2185   3574   3568   3570     1  0.0000000  1.6038667  3
   2186   2185   3574   3568     1  0.0000000  1.6038667  3
   2187   2185   3574   3568     1  0.0000000  1.6038667  3
   2190   2191   2203   2204     1  0.0000000  0.6508444  3
   2190   2191   2203   2205     1  0.0000000  0.6508444  3
   2190   2194   2206   2207     1  0.0000000  0.6508444  3
   2190   2194   2206   2208     1  0.0000000  0.6508444  3
   2190   2197   2200   2201     1  0.0000000  0.6508444  3
   2190   2197   2200   2202     1  0.0000000  0.6508444  3
   2191   2190   2194   2195     1  0.0000000  0.6508444  3
   2191   2190   2194   2196     1  0.0000000  0.6508444  3
   2191   2190   2197   2198     1  0.0000000  0.6508444  3
   2191   2190   2197   2199     1  0.0000000  0.6508444  3
   2191   2203   2215   2216     1  0.0000000  0.6508444  3
   2191   2203   2215   2217     1  0.0000000  0.6508444  3
   2192   2191   2190   2194     1  0.0000000  0.6508444  3
   2192   2191   2190   2197     1  0.0000000  0.6508444  3
   2192   2191   2190   2219     1  0.0000000  0.6508444  3
   2192   2191   2203   2215     1  0.0000000  0.6508444  3
   2192   2191   2203   2204     1  0.0000000  0.6508444  3
   2192   2191   2203   2205     1  0.0000000  0.6508444  3
   2193   2191   2190   2194     1  0.0000000  0.6508444  3
   2193   2191   2190   2197     1  0.0000000  0.6508444  3
   2193   2191   2190   2219     1  0.0000000  0.6508444  3
   2193   2191   2203   2215     1  0.0000000  0.6508444  3
   2193   2191   2203   2204     1  0.0000000  0.6508444  3
   2193   2191   2203   2205     1  0.0000000  0.6508444  3
   2194   2190   2197   2198     1  0.0000000  0.6508444  3
   2194   2190   2197   2199     1  0.0000000  0.6508444  3
   2194   2206   2212   2213     1  0.0000000  0.6508444  3
   2194   2206   2212   2214     1  0.0000000  0.6508444  3
   2195   2194   2190   2197     1  0.0000000  0.6508444  3
   2195   2194   2190   2219     1  0.0000000  0.6508444  3
   2195   2194   2206   2212     1  0.0000000  0.6508444  3
   2195   2194   2206   2207     1  0.0000000  0.6508444  3
   2195   2194   2206   2208     1  0.0000000  0.6508444  3
   2196   2194   2190   2197     1  0.0000000  0.6508444  3
   2196   2194   2190   2219     1  0.0000000  0.6508444  3
   2196   2194   2206   2212     1  0.0000000  0.6508444  3
   2196   2194   2206   2207     1  0.0000000  0.6508444  3
   2196   2194   2206   2208     1  0.0000000  0.6508444  3
   2197   2200   2209   2210     1  0.0000000  0.6508444  3
   2197   2200   2209   2211     1  0.0000000  0.6508444  3
   2198   2197   2190   2219     1  0.0000000  0.6508444  3
   2198   2197   2200   2209     1  0.0000000  0.6508444  3
   2198   2197   2200   2201     1  0.0000000  0.6508444  3
   2198   2197   2200   2202     1  0.0000000  0.6508444  3
   2199   2197   2190   2219     1  0.0000000  0.6508444  3
   2199   2197   2200   2209     1  0.0000000  0.6508444  3
   2199   2197   2200   2201     1  0.0000000  0.6508444  3
   2199   2197   2200   2202     1  0.0000000  0.6508444  3
   2200   2197   2190   2219     1  0.0000000  0.6508444  3
   2201   2200   2209   2218     1  0.0000000  1.0460000  1
   2201   2200   2209   2218     1  0.0000000  0.0000000  3
   2201   2200   2209   2210     1  0.0000000  0.6508444  3
   2201   2200   2209   2211     1  0.0000000  0.6508444  3
   2202   2200   2209   2218     1  0.0000000  1.0460000  1
   2202   2200   2209   2218     1  0.0000000  0.0000000  3
   2202   2200   2209   2210     1  0.0000000  0.6508444  3
   2202   2200   2209   2211     1  0.0000000  0.6508444  3
   2203   2191   2190   2219     1  0.0000000  0.6508444  3
   2204   2203   2215   3602     1  0.0000000  1.0460000  1
   2204   2203   2215   3602     1  0.0000000  0.0000000  3
   2204   2203   2215   2216     1  0.0000000  0.6508444  3
   2204   2203   2215   2217     1  0.0000000  0.6508444  3
   2205   2203   2215   3602     1  0.0000000  1.0460000  1
   2205   2203   2215   3602     1  0.0000000  0.0000000  3
   2205   2203   2215   2216     1  0.0000000  0.6508444  3
   2205   2203   2215   2217     1  0.0000000  0.6508444  3
   2206   2194   2190   2219     1  0.0000000  0.6508444  3
   2207   2206   2212   3588     1  0.0000000  1.0460000  1
   2207   2206   2212   3588     1  0.0000000  0.0000000  3
   2207   2206   2212   2213     1  0.0000000  0.6508444  3
   2207   2206   2212   2214     1  0.0000000  0.6508444  3
   2208   2206   2212   3588     1  0.0000000  1.0460000  1
   2208   2206   2212   3588     1  0.0000000  0.0000000  3
   2208   2206   2212   2213     1  0.0000000  0.6508444  3
   2208   2206   2212   2214     1  0.0000000  0.6508444  3
   2212   3588   3582   3583     1  0.0000000  1.6038667  3
   2212   3588   3582   3584     1  0.0000000  1.6038667  3
   2213   2212   3588   3582     1  0.0000000  1.6038667  3
   2214   2212   3588   3582     1  0.0000000  1.6038667  3
   2215   3602   3596   3597     1  0.0000000  1.6038667  3
   2215   3602   3596   3598     1  0.0000000  1.6038667  3
   2216   2215   3602   3596     1  0.0000000  1.6038667  3
   2217   2215   3602   3596     1  0.0000000  1.6038667  3
   2220   2221   2233   2234     1  0.0000000  0.6508444  3
   2220   2221   2233   2235     1  0.0000000  0.6508444  3
   2220   2224   2236   2237     1  0.0000000  0.6508444  3
   2220   2224   2236   2238     1  0.0000000  0.6508444  3
   2220   2227   2230   2231     1  0.0000000  0.6508444  3
   2220   2227   2230   2232     1  0.0000000  0.6508444  3
   2221   2220   2224   2225     1  0.0000000  0.6508444  3
   2221   2220   2224   2226     1  0.0000000  0.6508444  3
   2221   2220   2227   2228     1  0.0000000  0.6508444  3
   2221   2220   2227   2229     1  0.0000000  0.6508444  3
   2221   2233   2245   2246     1  0.0000000  0.6508444  3
   2221   2233   2245   2247     1  0.0000000  0.6508444  3
   2222   2221   2220   2224     1  0.0000000  0.6508444  3
   2222   2221   2220   2227     1  0.0000000  0.6508444  3
   2222   2221   2220   2249     1  0.0000000  0.6508444  3
   2222   2221   2233   2245     1  0.0000000  0.6508444  3
   2222   2221   2233   2234     1  0.0000000  0.6508444  3
   2222   2221   2233   2235     1  0.0000000  0.6508444  3
   2223   2221   2220   2224     1  0.0000000  0.6508444  3
   2223   2221   2220   2227     1  0.0000000  0.6508444  3
   2223   2221   2220   2249     1  0.0000000  0.6508444  3
   2223   2221   2233   2245     1  0.0000000  0.6508444  3
   2223   2221   2233   2234     1  0.0000000  0.6508444  3
   2223   2221   2233   2235     1  0.0000000  0.6508444  3
   2224   2220   2227   2228     1  0.0000000  0.6508444  3
   2224   2220   2227   2229     1  0.0000000  0.6508444  3
   2224   2236   2242   2243     1  0.0000000  0.6508444  3
   2224   2236   2242   2244     1  0.0000000  0.6508444  3
   2225   2224   2220   2227     1  0.0000000  0.6508444  3
   2225   2224   2220   2249     1  0.0000000  0.6508444  3
   2225   2224   2236   2242     1  0.0000000  0.6508444  3
   2225   2224   2236   2237     1  0.0000000  0.6508444  3
   2225   2224   2236   2238     1  0.0000000  0.6508444  3
   2226   2224   2220   2227     1  0.0000000  0.6508444  3
   2226   2224   2220   2249     1  0.0000000  0.6508444  3
   2226   2224   2236   2242     1  0.0000000  0.6508444  3
   2226   2224   2236   2237     1  0.0000000  0.6508444  3
   2226   2224   2236   2238     1  0.0000000  0.6508444  3
   2227   2230   2239   2240     1  0.0000000  0.6508444  3
   2227   2230   2239   2241     1  0.0000000  0.6508444  3
   2228   2227   2220   2249     1  0.0000000  0.6508444  3
   2228   2227   2230   2239     1  0.0000000  0.6508444  3
   2228   2227   2230   2231     1  0.0000000  0.6508444  3
   2228   2227   2230   2232     1  0.0000000  0.6508444  3
   2229   2227   2220   2249     1  0.0000000  0.6508444  3
   2229   2227   2230   2239     1  0.0000000  0.6508444  3
   2229   2227   2230   2231     1  0.0000000  0.6508444  3
   2229   2227   2230   2232     1  0.0000000  0.6508444  3
   2230   2227   2220   2249     1  0.0000000  0.6508444  3
   2231   2230   2239   2248     1  0.0000000  1.0460000  1
   2231   2230   2239   2248     1  0.0000000  0.0000000  3
   2231   2230   2239   2240     1  0.0000000  0.6508444  3
   2231   2230   2239   2241     1  0.0000000  0.6508444  3
   2232   2230   2239   2248     1  0.0000000  1.0460000  1
   2232   2230   2239   2248     1  0.0000000  0.0000000  3
   2232   2230   2239   2240     1  0.0000000  0.6508444  3
   2232   2230   2239   2241     1  0.0000000  0.6508444  3
   2233   2221   2220   2249     1  0.0000000  0.6508444  3
   2234   2233   2245   3630     1  0.0000000  1.0460000  1
   2234   2233   2245   3630     1  0.0000000  0.0000000  3
   2234   2233   2245   2246     1  0.0000000  0.6508444  3
   2234   2233   2245   2247     1  0.0000000  0.6508444  3
   2235   2233   2245   3630     1  0.0000000  1.0460000  1
   2235   2233   2245   3630     1  0.0000000  0.0000000  3
   2235   2233   2245   2246     1  0.0000000  0.6508444  3
   2235   2233   2245   2247     1  0.0000000  0.6508444  3
   2236   2224   2220   2249     1  0.0000000  0.6508444  3
   2237   2236   2242   3616     1  0.0000000  1.0460000  1
   2237   2236   2242   3616     1  0.0000000  0.0000000  3
   2237   2236   2242   2243     1  0.0000000  0.6508444  3
   2237   2236   2242   2244     1  0.0000000  0.6508444  3
   2238   2236   2242   3616     1  0.0000000  1.0460000  1
   2238   2236   2242   3616     1  0.0000000  0.0000000  3
   2238   2236   2242   2243     1  0.0000000  0.6508444  3
   2238   2236   2242   2244     1  0.0000000  0.6508444  3
   2242   3616   3610   3611     1  0.0000000  1.6038667  3
   2242   3616   3610   3612     1  0.0000000  1.6038667  3
   2243   2242   3616   3610     1  0.0000000  1.6038667  3
   2244   2242   3616   3610     1  0.0000000  1.6038667  3
   2245   3630   3624   3625     1  0.0000000  1.6038667  3
   2245   3630   3624   3626     1  0.0000000  1.6038667  3
   2246   2245   3630   3624     1  0.0000000  1.6038667  3
   2247   2245   3630   3624     1  0.0000000  1.6038667  3
   2250   2251   2263   2264     1  0.0000000  0.6508444  3
   2250   2251   2263   2265     1  0.0000000  0.6508444  3
   2250   2254   2266   2267     1  0.0000000  0.6508444  3
   2250   2254   2266   2268     1  0.0000000  0.6508444  3
   2250   2257   2260   2261     1  0.0000000  0.6508444  3
   2250   2257   2260   2262     1  0.0000000  0.6508444  3
   2251   2250   2254   2255     1  0.0000000  0.6508444  3
   2251   2250   2254   2256     1  0.0000000  0.6508444  3
   2251   2250   2257   2258     1  0.0000000  0.6508444  3
   2251   2250   2257   2259     1  0.0000000  0.6508444  3
   2251   2263   2275   2276     1  0.0000000  0.6508444  3
   2251   2263   2275   2277     1  0.0000000  0.6508444  3
   2252   2251   2250   2254     1  0.0000000  0.6508444  3
   2252   2251   2250   2257     1  0.0000000  0.6508444  3
   2252   2251   2250   2279     1  0.0000000  0.6508444  3
   2252   2251   2263   2275     1  0.0000000  0.6508444  3
   2252   2251   2263   2264     1  0.0000000  0.6508444  3
   2252   2251   2263   2265     1  0.0000000  0.6508444  3
   2253   2251   2250   2254     1  0.0000000  0.6508444  3
   2253   2251   2250   2257     1  0.0000000  0.6508444  3
   2253   2251   2250   2279     1  0.0000000  0.6508444  3
   2253   2251   2263   2275     1  0.0000000  0.6508444  3
   2253   2251   2263   2264     1  0.0000000  0.6508444  3
   2253   2251   2263   2265     1  0.0000000  0.6508444  3
   2254   2250   2257   2258     1  0.0000000  0.6508444  3
   2254   2250   2257   2259     1  0.0000000  0.6508444  3
   2254   2266   2272   2273     1  0.0000000  0.6508444  3
   2254   2266   2272   2274     1  0.0000000  0.6508444  3
   2255   2254   2250   2257     1  0.0000000  0.6508444  3
   2255   2254   2250   2279     1  0.0000000  0.6508444  3
   2255   2254   2266   2272     1  0.0000000  0.6508444  3
   2255   2254   2266   2267     1  0.0000000  0.6508444  3
   2255   2254   2266   2268     1  0.0000000  0.6508444  3
   2256   2254   2250   2257     1  0.0000000  0.6508444  3
   2256   2254   2250   2279     1  0.0000000  0.6508444  3
   2256   2254   2266   2272     1  0.0000000  0.6508444  3
   2256   2254   2266   2267     1  0.0000000  0.6508444  3
   2256   2254   2266   2268     1  0.0000000  0.6508444  3
   2257   2260   2269   2270     1  0.0000000  0.6508444  3
   2257   2260   2269   2271     1  0.0000000  0.6508444  3
   2258   2257   2250   2279     1  0.0000000  0.6508444  3
   2258   2257   2260   2269     1  0.0000000  0.6508444  3
   2258   2257   2260   2261     1  0.0000000  0.6508444  3
   2258   2257   2260   2262     1  0.0000000  0.6508444  3
   2259   2257   2250   2279     1  0.0000000  0.6508444  3
   2259   2257   2260   2269     1  0.0000000  0.6508444  3
   2259   2257   2260   2261     1  0.0000000  0.6508444  3
   2259   2257   2260   2262     1  0.0000000  0.6508444  3
   2260   2257   2250   2279     1  0.0000000  0.6508444  3
   2261   2260   2269   2278     1  0.0000000  1.0460000  1
   2261   2260   2269   2278     1  0.0000000  0.0000000  3
   2261   2260   2269   2270     1  0.0000000  0.6508444  3
   2261   2260   2269   2271     1  0.0000000  0.6508444  3
   2262   2260   2269   2278     1  0.0000000  1.0460000  1
   2262   2260   2269   2278     1  0.0000000  0.0000000  3
   2262   2260   2269   2270     1  0.0000000  0.6508444  3
   2262   2260   2269   2271     1  0.0000000  0.6508444  3
   2263   2251   2250   2279     1  0.0000000  0.6508444  3
   2264   2263   2275   3658     1  0.0000000  1.0460000  1
   2264   2263   2275   3658     1  0.0000000  0.0000000  3
   2264   2263   2275   2276     1  0.0000000  0.6508444  3
   2264   2263   2275   2277     1  0.0000000  0.6508444  3
   2265   2263   2275   3658     1  0.0000000  1.0460000  1
   2265   2263   2275   3658     1  0.0000000  0.0000000  3
   2265   2263   2275   2276     1  0.0000000  0.6508444  3
   2265   2263   2275   2277     1  0.0000000  0.6508444  3
   2266   2254   2250   2279     1  0.0000000  0.6508444  3
   2267   2266   2272   3644     1  0.0000000  1.0460000  1
   2267   2266   2272   3644     1  0.0000000  0.0000000  3
   2267   2266   2272   2273     1  0.0000000  0.6508444  3
   2267   2266   2272   2274     1  0.0000000  0.6508444  3
   2268   2266   2272   3644     1  0.0000000  1.0460000  1
   2268   2266   2272   3644     1  0.0000000  0.0000000  3
   2268   2266   2272   2273     1  0.0000000  0.6508444  3
   2268   2266   2272   2274     1  0.0000000  0.6508444  3
   2272   3644   3638   3639     1  0.0000000  1.6038667  3
   2272   3644   3638   3640     1  0.0000000  1.6038667  3
   2273   2272   3644   3638     1  0.0000000  1.6038667  3
   2274   2272   3644   3638     1  0.0000000  1.6038667  3
   2275   3658   3652   3653     1  0.0000000  1.6038667  3
   2275   3658   3652   3654     1  0.0000000  1.6038667  3
   2276   2275   3658   3652     1  0.0000000  1.6038667  3
   2277   2275   3658   3652     1  0.0000000  1.6038667  3
   2280   2281   2293   2294     1  0.0000000  0.6508444  3
   2280   2281   2293   2295     1  0.0000000  0.6508444  3
   2280   2284   2296   2297     1  0.0000000  0.6508444  3
   2280   2284   2296   2298     1  0.0000000  0.6508444  3
   2280   2287   2290   2291     1  0.0000000  0.6508444  3
   2280   2287   2290   2292     1  0.0000000  0.6508444  3
   2281   2280   2284   2285     1  0.0000000  0.6508444  3
   2281   2280   2284   2286     1  0.0000000  0.6508444  3
   2281   2280   2287   2288     1  0.0000000  0.6508444  3
   2281   2280   2287   2289     1  0.0000000  0.6508444  3
   2281   2293   2305   2306     1  0.0000000  0.6508444  3
   2281   2293   2305   2307     1  0.0000000  0.6508444  3
   2282   2281   2280   2284     1  0.0000000  0.6508444  3
   2282   2281   2280   2287     1  0.0000000  0.6508444  3
   2282   2281   2280   2309     1  0.0000000  0.6508444  3
   2282   2281   2293   2305     1  0.0000000  0.6508444  3
   2282   2281   2293   2294     1  0.0000000  0.6508444  3
   2282   2281   2293   2295     1  0.0000000  0.6508444  3
   2283   2281   2280   2284     1  0.0000000  0.6508444  3
   2283   2281   2280   2287     1  0.0000000  0.6508444  3
   2283   2281   2280   2309     1  0.0000000  0.6508444  3
   2283   2281   2293   2305     1  0.0000000  0.6508444  3
   2283   2281   2293   2294     1  0.0000000  0.6508444  3
   2283   2281   2293   2295     1  0.0000000  0.6508444  3
   2284   2280   2287   2288     1  0.0000000  0.6508444  3
   2284   2280   2287   2289     1  0.0000000  0.6508444  3
   2284   2296   2302   2303     1  0.0000000  0.6508444  3
   2284   2296   2302   2304     1  0.0000000  0.6508444  3
   2285   2284   2280   2287     1  0.0000000  0.6508444  3
   2285   2284   2280   2309     1  0.0000000  0.6508444  3
   2285   2284   2296   2302     1  0.0000000  0.6508444  3
   2285   2284   2296   2297     1  0.0000000  0.6508444  3
   2285   2284   2296   2298     1  0.0000000  0.6508444  3
   2286   2284   2280   2287     1  0.0000000  0.6508444  3
   2286   2284   2280   2309     1  0.0000000  0.6508444  3
   2286   2284   2296   2302     1  0.0000000  0.6508444  3
   2286   2284   2296   2297     1  0.0000000  0.6508444  3
   2286   2284   2296   2298     1  0.0000000  0.6508444  3
   2287   2290   2299   2300     1  0.0000000  0.6508444  3
   2287   2290   2299   2301     1  0.0000000  0.6508444  3
   2288   2287   2280   2309     1  0.0000000  0.6508444  3
   2288   2287   2290   2299     1  0.0000000  0.6508444  3
   2288   2287   2290   2291     1  0.0000000  0.6508444  3
   2288   2287   2290   2292     1  0.0000000  0.6508444  3
   2289   2287   2280   2309     1  0.0000000  0.6508444  3
   2289   2287   2290   2299     1  0.0000000  0.6508444  3
   2289   2287   2290   2291     1  0.0000000  0.6508444  3
   2289   2287   2290   2292     1  0.0000000  0.6508444  3
   2290   2287   2280   2309     1  0.0000000  0.6508444  3
   2291   2290   2299   2308     1  0.0000000  1.0460000  1
   2291   2290   2299   2308     1  0.0000000  0.0000000  3
   2291   2290   2299   2300     1  0.0000000  0.6508444  3
   2291   2290   2299   2301     1  0.0000000  0.6508444  3
   2292   2290   2299   2308     1  0.0000000  1.0460000  1
   2292   2290   2299   2308     1  0.0000000  0.0000000  3
   2292   2290   2299   2300     1  0.0000000  0.6508444  3
   2292   2290   2299   2301     1  0.0000000  0.6508444  3
   2293   2281   2280   2309     1  0.0000000  0.6508444  3
   2294   2293   2305   3686     1  0.0000000  1.0460000  1
   2294   2293   2305   3686     1  0.0000000  0.0000000  3
   2294   2293   2305   2306     1  0.0000000  0.6508444  3
   2294   2293   2305   2307     1  0.0000000  0.6508444  3
   2295   2293   2305   3686     1  0.0000000  1.0460000  1
   2295   2293   2305   3686     1  0.0000000  0.0000000  3
   2295   2293   2305   2306     1  0.0000000  0.6508444  3
   2295   2293   2305   2307     1  0.0000000  0.6508444  3
   2296   2284   2280   2309     1  0.0000000  0.6508444  3
   2297   2296   2302   3672     1  0.0000000  1.0460000  1
   2297   2296   2302   3672     1  0.0000000  0.0000000  3
   2297   2296   2302   2303     1  0.0000000  0.6508444  3
   2297   2296   2302   2304     1  0.0000000  0.6508444  3
   2298   2296   2302   3672     1  0.0000000  1.0460000  1
   2298   2296   2302   3672     1  0.0000000  0.0000000  3
   2298   2296   2302   2303     1  0.0000000  0.6508444  3
   2298   2296   2302   2304     1  0.0000000  0.6508444  3
   2302   3672   3666   3667     1  0.0000000  1.6038667  3
   2302   3672   3666   3668     1  0.0000000  1.6038667  3
   2303   2302   3672   3666     1  0.0000000  1.6038667  3
   2304   2302   3672   3666     1  0.0000000  1.6038667  3
   2305   3686   3680   3681     1  0.0000000  1.6038667  3
   2305   3686   3680   3682     1  0.0000000  1.6038667  3
   2306   2305   3686   3680     1  0.0000000  1.6038667  3
   2307   2305   3686   3680     1  0.0000000  1.6038667  3
   2310   2311   2323   2324     1  0.0000000  0.6508444  3
   2310   2311   2323   2325     1  0.0000000  0.6508444  3
   2310   2314   2326   2327     1  0.0000000  0.6508444  3
   2310   2314   2326   2328     1  0.0000000  0.6508444  3
   2310   2317   2320   2321     1  0.0000000  0.6508444  3
   2310   2317   2320   2322     1  0.0000000  0.6508444  3
   2311   2310   2314   2315     1  0.0000000  0.6508444  3
   2311   2310   2314   2316     1  0.0000000  0.6508444  3
   2311   2310   2317   2318     1  0.0000000  0.6508444  3
   2311   2310   2317   2319     1  0.0000000  0.6508444  3
   2311   2323   2335   2336     1  0.0000000  0.6508444  3
   2311   2323   2335   2337     1  0.0000000  0.6508444  3
   2312   2311   2310   2314     1  0.0000000  0.6508444  3
   2312   2311   2310   2317     1  0.0000000  0.6508444  3
   2312   2311   2310   2339     1  0.0000000  0.6508444  3
   2312   2311   2323   2335     1  0.0000000  0.6508444  3
   2312   2311   2323   2324     1  0.0000000  0.6508444  3
   2312   2311   2323   2325     1  0.0000000  0.6508444  3
   2313   2311   2310   2314     1  0.0000000  0.6508444  3
   2313   2311   2310   2317     1  0.0000000  0.6508444  3
   2313   2311   2310   2339     1  0.0000000  0.6508444  3
   2313   2311   2323   2335     1  0.0000000  0.6508444  3
   2313   2311   2323   2324     1  0.0000000  0.6508444  3
   2313   2311   2323   2325     1  0.0000000  0.6508444  3
   2314   2310   2317   2318     1  0.0000000  0.6508444  3
   2314   2310   2317   2319     1  0.0000000  0.6508444  3
   2314   2326   2332   2333     1  0.0000000  0.6508444  3
   2314   2326   2332   2334     1  0.0000000  0.6508444  3
   2315   2314   2310   2317     1  0.0000000  0.6508444  3
   2315   2314   2310   2339     1  0.0000000  0.6508444  3
   2315   2314   2326   2332     1  0.0000000  0.6508444  3
   2315   2314   2326   2327     1  0.0000000  0.6508444  3
   2315   2314   2326   2328     1  0.0000000  0.6508444  3
   2316   2314   2310   2317     1  0.0000000  0.6508444  3
   2316   2314   2310   2339     1  0.0000000  0.6508444  3
   2316   2314   2326   2332     1  0.0000000  0.6508444  3
   2316   2314   2326   2327     1  0.0000000  0.6508444  3
   2316   2314   2326   2328     1  0.0000000  0.6508444  3
   2317   2320   2329   2330     1  0.0000000  0.6508444  3
   2317   2320   2329   2331     1  0.0000000  0.6508444  3
   2318   2317   2310   2339     1  0.0000000  0.6508444  3
   2318   2317   2320   2329     1  0.0000000  0.6508444  3
   2318   2317   2320   2321     1  0.0000000  0.6508444  3
   2318   2317   2320   2322     1  0.0000000  0.6508444  3
   2319   2317   2310   2339     1  0.0000000  0.6508444  3
   2319   2317   2320   2329     1  0.0000000  0.6508444  3
   2319   2317   2320   2321     1  0.0000000  0.6508444  3
   2319   2317   2320   2322     1  0.0000000  0.6508444  3
   2320   2317   2310   2339     1  0.0000000  0.6508444  3
   2321   2320   2329   2338     1  0.0000000  1.0460000  1
   2321   2320   2329   2338     1  0.0000000  0.0000000  3
   2321   2320   2329   2330     1  0.0000000  0.6508444  3
   2321   2320   2329   2331     1  0.0000000  0.6508444  3
   2322   2320   2329   2338     1  0.0000000  1.0460000  1
   2322   2320   2329   2338     1  0.0000000  0.0000000  3
   2322   2320   2329   2330     1  0.0000000  0.6508444  3
   2322   2320   2329   2331     1  0.0000000  0.6508444  3
   2323   2311   2310   2339     1  0.0000000  0.6508444  3
   2324   2323   2335   3714     1  0.0000000  1.0460000  1
   2324   2323   2335   3714     1  0.0000000  0.0000000  3
   2324   2323   2335   2336     1  0.0000000  0.6508444  3
   2324   2323   2335   2337     1  0.0000000  0.6508444  3
   2325   2323   2335   3714     1  0.0000000  1.0460000  1
   2325   2323   2335   3714     1  0.0000000  0.0000000  3
   2325   2323   2335   2336     1  0.0000000  0.6508444  3
   2325   2323   2335   2337     1  0.0000000  0.6508444  3
   2326   2314   2310   2339     1  0.0000000  0.6508444  3
   2327   2326   2332   3700     1  0.0000000  1.0460000  1
   2327   2326   2332   3700     1  0.0000000  0.0000000  3
   2327   2326   2332   2333     1  0.0000000  0.6508444  3
   2327   2326   2332   2334     1  0.0000000  0.6508444  3
   2328   2326   2332   3700     1  0.0000000  1.0460000  1
   2328   2326   2332   3700     1  0.0000000  0.0000000  3
   2328   2326   2332   2333     1  0.0000000  0.6508444  3
   2328   2326   2332   2334     1  0.0000000  0.6508444  3
   2332   3700   3694   3695     1  0.0000000  1.6038667  3
   2332   3700   3694   3696     1  0.0000000  1.6038667  3
   2333   2332   3700   3694     1  0.0000000  1.6038667  3
   2334   2332   3700   3694     1  0.0000000  1.6038667  3
   2335   3714   3708   3709     1  0.0000000  1.6038667  3
   2335   3714   3708   3710     1  0.0000000  1.6038667  3
   2336   2335   3714   3708     1  0.0000000  1.6038667  3
   2337   2335   3714   3708     1  0.0000000  1.6038667  3
   2340   2341   2353   2354     1  0.0000000  0.6508444  3
   2340   2341   2353   2355     1  0.0000000  0.6508444  3
   2340   2344   2356   2357     1  0.0000000  0.6508444  3
   2340   2344   2356   2358     1  0.0000000  0.6508444  3
   2340   2347   2350   2351     1  0.0000000  0.6508444  3
   2340   2347   2350   2352     1  0.0000000  0.6508444  3
   2341   2340   2344   2345     1  0.0000000  0.6508444  3
   2341   2340   2344   2346     1  0.0000000  0.6508444  3
   2341   2340   2347   2348     1  0.0000000  0.6508444  3
   2341   2340   2347   2349     1  0.0000000  0.6508444  3
   2341   2353   2365   2366     1  0.0000000  0.6508444  3
   2341   2353   2365   2367     1  0.0000000  0.6508444  3
   2342   2341   2340   2344     1  0.0000000  0.6508444  3
   2342   2341   2340   2347     1  0.0000000  0.6508444  3
   2342   2341   2340   2369     1  0.0000000  0.6508444  3
   2342   2341   2353   2365     1  0.0000000  0.6508444  3
   2342   2341   2353   2354     1  0.0000000  0.6508444  3
   2342   2341   2353   2355     1  0.0000000  0.6508444  3
   2343   2341   2340   2344     1  0.0000000  0.6508444  3
   2343   2341   2340   2347     1  0.0000000  0.6508444  3
   2343   2341   2340   2369     1  0.0000000  0.6508444  3
   2343   2341   2353   2365     1  0.0000000  0.6508444  3
   2343   2341   2353   2354     1  0.0000000  0.6508444  3
   2343   2341   2353   2355     1  0.0000000  0.6508444  3
   2344   2340   2347   2348     1  0.0000000  0.6508444  3
   2344   2340   2347   2349     1  0.0000000  0.6508444  3
   2344   2356   2362   2363     1  0.0000000  0.6508444  3
   2344   2356   2362   2364     1  0.0000000  0.6508444  3
   2345   2344   2340   2347     1  0.0000000  0.6508444  3
   2345   2344   2340   2369     1  0.0000000  0.6508444  3
   2345   2344   2356   2362     1  0.0000000  0.6508444  3
   2345   2344   2356   2357     1  0.0000000  0.6508444  3
   2345   2344   2356   2358     1  0.0000000  0.6508444  3
   2346   2344   2340   2347     1  0.0000000  0.6508444  3
   2346   2344   2340   2369     1  0.0000000  0.6508444  3
   2346   2344   2356   2362     1  0.0000000  0.6508444  3
   2346   2344   2356   2357     1  0.0000000  0.6508444  3
   2346   2344   2356   2358     1  0.0000000  0.6508444  3
   2347   2350   2359   2360     1  0.0000000  0.6508444  3
   2347   2350   2359   2361     1  0.0000000  0.6508444  3
   2348   2347   2340   2369     1  0.0000000  0.6508444  3
   2348   2347   2350   2359     1  0.0000000  0.6508444  3
   2348   2347   2350   2351     1  0.0000000  0.6508444  3
   2348   2347   2350   2352     1  0.0000000  0.6508444  3
   2349   2347   2340   2369     1  0.0000000  0.6508444  3
   2349   2347   2350   2359     1  0.0000000  0.6508444  3
   2349   2347   2350   2351     1  0.0000000  0.6508444  3
   2349   2347   2350   2352     1  0.0000000  0.6508444  3
   2350   2347   2340   2369     1  0.0000000  0.6508444  3
   2351   2350   2359   2368     1  0.0000000  1.0460000  1
   2351   2350   2359   2368     1  0.0000000  0.0000000  3
   2351   2350   2359   2360     1  0.0000000  0.6508444  3
   2351   2350   2359   2361     1  0.0000000  0.6508444  3
   2352   2350   2359   2368     1  0.0000000  1.0460000  1
   2352   2350   2359   2368     1  0.0000000  0.0000000  3
   2352   2350   2359   2360     1  0.0000000  0.6508444  3
   2352   2350   2359   2361     1  0.0000000  0.6508444  3
   2353   2341   2340   2369     1  0.0000000  0.6508444  3
   2354   2353   2365   3742     1  0.0000000  1.0460000  1
   2354   2353   2365   3742     1  0.0000000  0.0000000  3
   2354   2353   2365   2366     1  0.0000000  0.6508444  3
   2354   2353   2365   2367     1  0.0000000  0.6508444  3
   2355   2353   2365   3742     1  0.0000000  1.0460000  1
   2355   2353   2365   3742     1  0.0000000  0.0000000  3
   2355   2353   2365   2366     1  0.0000000  0.6508444  3
   2355   2353   2365   2367     1  0.0000000  0.6508444  3
   2356   2344   2340   2369     1  0.0000000  0.6508444  3
   2357   2356   2362   3728     1  0.0000000  1.0460000  1
   2357   2356   2362   3728     1  0.0000000  0.0000000  3
   2357   2356   2362   2363     1  0.0000000  0.6508444  3
   2357   2356   2362   2364     1  0.0000000  0.6508444  3
   2358   2356   2362   3728     1  0.0000000  1.0460000  1
   2358   2356   2362   3728     1  0.0000000  0.0000000  3
   2358   2356   2362   2363     1  0.0000000  0.6508444  3
   2358   2356   2362   2364     1  0.0000000  0.6508444  3
   2362   3728   3722   3723     1  0.0000000  1.6038667  3
   2362   3728   3722   3724     1  0.0000000  1.6038667  3
   2363   2362   3728   3722     1  0.0000000  1.6038667  3
   2364   2362   3728   3722     1  0.0000000  1.6038667  3
   2365   3742   3736   3737     1  0.0000000  1.6038667  3
   2365   3742   3736   3738     1  0.0000000  1.6038667  3
   2366   2365   3742   3736     1  0.0000000  1.6038667  3
   2367   2365   3742   3736     1  0.0000000  1.6038667  3
   2370   2371   2383   2384     1  0.0000000  0.6508444  3
   2370   2371   2383   2385     1  0.0000000  0.6508444  3
   2370   2374   2386   2387     1  0.0000000  0.6508444  3
   2370   2374   2386   2388     1  0.0000000  0.6508444  3
   2370   2377   2380   2381     1  0.0000000  0.6508444  3
   2370   2377   2380   2382     1  0.0000000  0.6508444  3
   2371   2370   2374   2375     1  0.0000000  0.6508444  3
   2371   2370   2374   2376     1  0.0000000  0.6508444  3
   2371   2370   2377   2378     1  0.0000000  0.6508444  3
   2371   2370   2377   2379     1  0.0000000  0.6508444  3
   2371   2383   2395   2396     1  0.0000000  0.6508444  3
   2371   2383   2395   2397     1  0.0000000  0.6508444  3
   2372   2371   2370   2374     1  0.0000000  0.6508444  3
   2372   2371   2370   2377     1  0.0000000  0.6508444  3
   2372   2371   2370   2399     1  0.0000000  0.6508444  3
   2372   2371   2383   2395     1  0.0000000  0.6508444  3
   2372   2371   2383   2384     1  0.0000000  0.6508444  3
   2372   2371   2383   2385     1  0.0000000  0.6508444  3
   2373   2371   2370   2374     1  0.0000000  0.6508444  3
   2373   2371   2370   2377     1  0.0000000  0.6508444  3
   2373   2371   2370   2399     1  0.0000000  0.6508444  3
   2373   2371   2383   2395     1  0.0000000  0.6508444  3
   2373   2371   2383   2384     1  0.0000000  0.6508444  3
   2373   2371   2383   2385     1  0.0000000  0.6508444  3
   2374   2370   2377   2378     1  0.0000000  0.6508444  3
   2374   2370   2377   2379     1  0.0000000  0.6508444  3
   2374   2386   2392   2393     1  0.0000000  0.6508444  3
   2374   2386   2392   2394     1  0.0000000  0.6508444  3
   2375   2374   2370   2377     1  0.0000000  0.6508444  3
   2375   2374   2370   2399     1  0.0000000  0.6508444  3
   2375   2374   2386   2392     1  0.0000000  0.6508444  3
   2375   2374   2386   2387     1  0.0000000  0.6508444  3
   2375   2374   2386   2388     1  0.0000000  0.6508444  3
   2376   2374   2370   2377     1  0.0000000  0.6508444  3
   2376   2374   2370   2399     1  0.0000000  0.6508444  3
   2376   2374   2386   2392     1  0.0000000  0.6508444  3
   2376   2374   2386   2387     1  0.0000000  0.6508444  3
   2376   2374   2386   2388     1  0.0000000  0.6508444  3
   2377   2380   2389   2390     1  0.0000000  0.6508444  3
   2377   2380   2389   2391     1  0.0000000  0.6508444  3
   2378   2377   2370   2399     1  0.0000000  0.6508444  3
   2378   2377   2380   2389     1  0.0000000  0.6508444  3
   2378   2377   2380   2381     1  0.0000000  0.6508444  3
   2378   2377   2380   2382     1  0.0000000  0.6508444  3
   2379   2377   2370   2399     1  0.0000000  0.6508444  3
   2379   2377   2380   2389     1  0.0000000  0.6508444  3
   2379   2377   2380   2381     1  0.0000000  0.6508444  3
   2379   2377   2380   2382     1  0.0000000  0.6508444  3
   2380   2377   2370   2399     1  0.0000000  0.6508444  3
   2381   2380   2389   2398     1  0.0000000  1.0460000  1
   2381   2380   2389   2398     1  0.0000000  0.0000000  3
   2381   2380   2389   2390     1  0.0000000  0.6508444  3
   2381   2380   2389   2391     1  0.0000000  0.6508444  3
   2382   2380   2389   2398     1  0.0000000  1.0460000  1
   2382   2380   2389   2398     1  0.0000000  0.0000000  3
   2382   2380   2389   2390     1  0.0000000  0.6508444  3
   2382   2380   2389   2391     1  0.0000000  0.6508444  3
   2383   2371   2370   2399     1  0.0000000  0.6508444  3
   2384   2383   2395   3770     1  0.0000000  1.0460000  1
   2384   2383   2395   3770     1  0.0000000  0.0000000  3
   2384   2383   2395   2396     1  0.0000000  0.6508444  3
   2384   2383   2395   2397     1  0.0000000  0.6508444  3
   2385   2383   2395   3770     1  0.0000000  1.0460000  1
   2385   2383   2395   3770     1  0.0000000  0.0000000  3
   2385   2383   2395   2396     1  0.0000000  0.6508444  3
   2385   2383   2395   2397     1  0.0000000  0.6508444  3
   2386   2374   2370   2399     1  0.0000000  0.6508444  3
   2387   2386   2392   3756     1  0.0000000  1.0460000  1
   2387   2386   2392   3756     1  0.0000000  0.0000000  3
   2387   2386   2392   2393     1  0.0000000  0.6508444  3
   2387   2386   2392   2394     1  0.0000000  0.6508444  3
   2388   2386   2392   3756     1  0.0000000  1.0460000  1
   2388   2386   2392   3756     1  0.0000000  0.0000000  3
   2388   2386   2392   2393     1  0.0000000  0.6508444  3
   2388   2386   2392   2394     1  0.0000000  0.6508444  3
   2392   3756   3750   3751     1  0.0000000  1.6038667  3
   2392   3756   3750   3752     1  0.0000000  1.6038667  3
   2393   2392   3756   3750     1  0.0000000  1.6038667  3
   2394   2392   3756   3750     1  0.0000000  1.6038667  3
   2395   3770   3764   3765     1  0.0000000  1.6038667  3
   2395   3770   3764   3766     1  0.0000000  1.6038667  3
   2396   2395   3770   3764     1  0.0000000  1.6038667  3
   2397   2395   3770   3764     1  0.0000000  1.6038667  3
   2400   2401   2413   2414     1  0.0000000  0.6508444  3
   2400   2401   2413   2415     1  0.0000000  0.6508444  3
   2400   2404   2416   2417     1  0.0000000  0.6508444  3
   2400   2404   2416   2418     1  0.0000000  0.6508444  3
   2400   2407   2410   2411     1  0.0000000  0.6508444  3
   2400   2407   2410   2412     1  0.0000000  0.6508444  3
   2401   2400   2404   2405     1  0.0000000  0.6508444  3
   2401   2400   2404   2406     1  0.0000000  0.6508444  3
   2401   2400   2407   2408     1  0.0000000  0.6508444  3
   2401   2400   2407   2409     1  0.0000000  0.6508444  3
   2401   2413   2425   2426     1  0.0000000  0.6508444  3
   2401   2413   2425   2427     1  0.0000000  0.6508444  3
   2402   2401   2400   2404     1  0.0000000  0.6508444  3
   2402   2401   2400   2407     1  0.0000000  0.6508444  3
   2402   2401   2400   2429     1  0.0000000  0.6508444  3
   2402   2401   2413   2425     1  0.0000000  0.6508444  3
   2402   2401   2413   2414     1  0.0000000  0.6508444  3
   2402   2401   2413   2415     1  0.0000000  0.6508444  3
   2403   2401   2400   2404     1  0.0000000  0.6508444  3
   2403   2401   2400   2407     1  0.0000000  0.6508444  3
   2403   2401   2400   2429     1  0.0000000  0.6508444  3
   2403   2401   2413   2425     1  0.0000000  0.6508444  3
   2403   2401   2413   2414     1  0.0000000  0.6508444  3
   2403   2401   2413   2415     1  0.0000000  0.6508444  3
   2404   2400   2407   2408     1  0.0000000  0.6508444  3
   2404   2400   2407   2409     1  0.0000000  0.6508444  3
   2404   2416   2422   2423     1  0.0000000  0.6508444  3
   2404   2416   2422   2424     1  0.0000000  0.6508444  3
   2405   2404   2400   2407     1  0.0000000  0.6508444  3
   2405   2404   2400   2429     1  0.0000000  0.6508444  3
   2405   2404   2416   2422     1  0.0000000  0.6508444  3
   2405   2404   2416   2417     1  0.0000000  0.6508444  3
   2405   2404   2416   2418     1  0.0000000  0.6508444  3
   2406   2404   2400   2407     1  0.0000000  0.6508444  3
   2406   2404   2400   2429     1  0.0000000  0.6508444  3
   2406   2404   2416   2422     1  0.0000000  0.6508444  3
   2406   2404   2416   2417     1  0.0000000  0.6508444  3
   2406   2404   2416   2418     1  0.0000000  0.6508444  3
   2407   2410   2419   2420     1  0.0000000  0.6508444  3
   2407   2410   2419   2421     1  0.0000000  0.6508444  3
   2408   2407   2400   2429     1  0.0000000  0.6508444  3
   2408   2407   2410   2419     1  0.0000000  0.6508444  3
   2408   2407   2410   2411     1  0.0000000  0.6508444  3
   2408   2407   2410   2412     1  0.0000000  0.6508444  3
   2409   2407   2400   2429     1  0.0000000  0.6508444  3
   2409   2407   2410   2419     1  0.0000000  0.6508444  3
   2409   2407   2410   2411     1  0.0000000  0.6508444  3
   2409   2407   2410   2412     1  0.0000000  0.6508444  3
   2410   2407   2400   2429     1  0.0000000  0.6508444  3
   2411   2410   2419   2428     1  0.0000000  1.0460000  1
   2411   2410   2419   2428     1  0.0000000  0.0000000  3
   2411   2410   2419   2420     1  0.0000000  0.6508444  3
   2411   2410   2419   2421     1  0.0000000  0.6508444  3
   2412   2410   2419   2428     1  0.0000000  1.0460000  1
   2412   2410   2419   2428     1  0.0000000  0.0000000  3
   2412   2410   2419   2420     1  0.0000000  0.6508444  3
   2412   2410   2419   2421     1  0.0000000  0.6508444  3
   2413   2401   2400   2429     1  0.0000000  0.6508444  3
   2414   2413   2425   3798     1  0.0000000  1.0460000  1
   2414   2413   2425   3798     1  0.0000000  0.0000000  3
   2414   2413   2425   2426     1  0.0000000  0.6508444  3
   2414   2413   2425   2427     1  0.0000000  0.6508444  3
   2415   2413   2425   3798     1  0.0000000  1.0460000  1
   2415   2413   2425   3798     1  0.0000000  0.0000000  3
   2415   2413   2425   2426     1  0.0000000  0.6508444  3
   2415   2413   2425   2427     1  0.0000000  0.6508444  3
   2416   2404   2400   2429     1  0.0000000  0.6508444  3
   2417   2416   2422   3784     1  0.0000000  1.0460000  1
   2417   2416   2422   3784     1  0.0000000  0.0000000  3
   2417   2416   2422   2423     1  0.0000000  0.6508444  3
   2417   2416   2422   2424     1  0.0000000  0.6508444  3
   2418   2416   2422   3784     1  0.0000000  1.0460000  1
   2418   2416   2422   3784     1  0.0000000  0.0000000  3
   2418   2416   2422   2423     1  0.0000000  0.6508444  3
   2418   2416   2422   2424     1  0.0000000  0.6508444  3
   2422   3784   3778   3779     1  0.0000000  1.6038667  3
   2422   3784   3778   3780     1  0.0000000  1.6038667  3
   2423   2422   3784   3778     1  0.0000000  1.6038667  3
   2424   2422   3784   3778     1  0.0000000  1.6038667  3
   2425   3798   3792   3793     1  0.0000000  1.6038667  3
   2425   3798   3792   3794     1  0.0000000  1.6038667  3
   2426   2425   3798   3792     1  0.0000000  1.6038667  3
   2427   2425   3798   3792     1  0.0000000  1.6038667  3
   2430   2431   2443   2444     1  0.0000000  0.6508444  3
   2430   2431   2443   2445     1  0.0000000  0.6508444  3
   2430   2434   2446   2447     1  0.0000000  0.6508444  3
   2430   2434   2446   2448     1  0.0000000  0.6508444  3
   2430   2437   2440   2441     1  0.0000000  0.6508444  3
   2430   2437   2440   2442     1  0.0000000  0.6508444  3
   2431   2430   2434   2435     1  0.0000000  0.6508444  3
   2431   2430   2434   2436     1  0.0000000  0.6508444  3
   2431   2430   2437   2438     1  0.0000000  0.6508444  3
   2431   2430   2437   2439     1  0.0000000  0.6508444  3
   2431   2443   2455   2456     1  0.0000000  0.6508444  3
   2431   2443   2455   2457     1  0.0000000  0.6508444  3
   2432   2431   2430   2434     1  0.0000000  0.6508444  3
   2432   2431   2430   2437     1  0.0000000  0.6508444  3
   2432   2431   2430   2459     1  0.0000000  0.6508444  3
   2432   2431   2443   2455     1  0.0000000  0.6508444  3
   2432   2431   2443   2444     1  0.0000000  0.6508444  3
   2432   2431   2443   2445     1  0.0000000  0.6508444  3
   2433   2431   2430   2434     1  0.0000000  0.6508444  3
   2433   2431   2430   2437     1  0.0000000  0.6508444  3
   2433   2431   2430   2459     1  0.0000000  0.6508444  3
   2433   2431   2443   2455     1  0.0000000  0.6508444  3
   2433   2431   2443   2444     1  0.0000000  0.6508444  3
   2433   2431   2443   2445     1  0.0000000  0.6508444  3
   2434   2430   2437   2438     1  0.0000000  0.6508444  3
   2434   2430   2437   2439     1  0.0000000  0.6508444  3
   2434   2446   2452   2453     1  0.0000000  0.6508444  3
   2434   2446   2452   2454     1  0.0000000  0.6508444  3
   2435   2434   2430   2437     1  0.0000000  0.6508444  3
   2435   2434   2430   2459     1  0.0000000  0.6508444  3
   2435   2434   2446   2452     1  0.0000000  0.6508444  3
   2435   2434   2446   2447     1  0.0000000  0.6508444  3
   2435   2434   2446   2448     1  0.0000000  0.6508444  3
   2436   2434   2430   2437     1  0.0000000  0.6508444  3
   2436   2434   2430   2459     1  0.0000000  0.6508444  3
   2436   2434   2446   2452     1  0.0000000  0.6508444  3
   2436   2434   2446   2447     1  0.0000000  0.6508444  3
   2436   2434   2446   2448     1  0.0000000  0.6508444  3
   2437   2440   2449   2450     1  0.0000000  0.6508444  3
   2437   2440   2449   2451     1  0.0000000  0.6508444  3
   2438   2437   2430   2459     1  0.0000000  0.6508444  3
   2438   2437   2440   2449     1  0.0000000  0.6508444  3
   2438   2437   2440   2441     1  0.0000000  0.6508444  3
   2438   2437   2440   2442     1  0.0000000  0.6508444  3
   2439   2437   2430   2459     1  0.0000000  0.6508444  3
   2439   2437   2440   2449     1  0.0000000  0.6508444  3
   2439   2437   2440   2441     1  0.0000000  0.6508444  3
   2439   2437   2440   2442     1  0.0000000  0.6508444  3
   2440   2437   2430   2459     1  0.0000000  0.6508444  3
   2441   2440   2449   2458     1  0.0000000  1.0460000  1
   2441   2440   2449   2458     1  0.0000000  0.0000000  3
   2441   2440   2449   2450     1  0.0000000  0.6508444  3
   2441   2440   2449   2451     1  0.0000000  0.6508444  3
   2442   2440   2449   2458     1  0.0000000  1.0460000  1
   2442   2440   2449   2458     1  0.0000000  0.0000000  3
   2442   2440   2449   2450     1  0.0000000  0.6508444  3
   2442   2440   2449   2451     1  0.0000000  0.6508444  3
   2443   2431   2430   2459     1  0.0000000  0.6508444  3
   2444   2443   2455   3826     1  0.0000000  1.0460000  1
   2444   2443   2455   3826     1  0.0000000  0.0000000  3
   2444   2443   2455   2456     1  0.0000000  0.6508444  3
   2444   2443   2455   2457     1  0.0000000  0.6508444  3
   2445   2443   2455   3826     1  0.0000000  1.0460000  1
   2445   2443   2455   3826     1  0.0000000  0.0000000  3
   2445   2443   2455   2456     1  0.0000000  0.6508444  3
   2445   2443   2455   2457     1  0.0000000  0.6508444  3
   2446   2434   2430   2459     1  0.0000000  0.6508444  3
   2447   2446   2452   3812     1  0.0000000  1.0460000  1
   2447   2446   2452   3812     1  0.0000000  0.0000000  3
   2447   2446   2452   2453     1  0.0000000  0.6508444  3
   2447   2446   2452   2454     1  0.0000000  0.6508444  3
   2448   2446   2452   3812     1  0.0000000  1.0460000  1
   2448   2446   2452   3812     1  0.0000000  0.0000000  3
   2448   2446   2452   2453     1  0.0000000  0.6508444  3
   2448   2446   2452   2454     1  0.0000000  0.6508444  3
   2452   3812   3806   3807     1  0.0000000  1.6038667  3
   2452   3812   3806   3808     1  0.0000000  1.6038667  3
   2453   2452   3812   3806     1  0.0000000  1.6038667  3
   2454   2452   3812   3806     1  0.0000000  1.6038667  3
   2455   3826   3820   3821     1  0.0000000  1.6038667  3
   2455   3826   3820   3822     1  0.0000000  1.6038667  3
   2456   2455   3826   3820     1  0.0000000  1.6038667  3
   2457   2455   3826   3820     1  0.0000000  1.6038667  3
   2460   2461   2473   2474     1  0.0000000  0.6508444  3
   2460   2461   2473   2475     1  0.0000000  0.6508444  3
   2460   2464   2476   2477     1  0.0000000  0.6508444  3
   2460   2464   2476   2478     1  0.0000000  0.6508444  3
   2460   2467   2470   2471     1  0.0000000  0.6508444  3
   2460   2467   2470   2472     1  0.0000000  0.6508444  3
   2461   2460   2464   2465     1  0.0000000  0.6508444  3
   2461   2460   2464   2466     1  0.0000000  0.6508444  3
   2461   2460   2467   2468     1  0.0000000  0.6508444  3
   2461   2460   2467   2469     1  0.0000000  0.6508444  3
   2461   2473   2485   2486     1  0.0000000  0.6508444  3
   2461   2473   2485   2487     1  0.0000000  0.6508444  3
   2462   2461   2460   2464     1  0.0000000  0.6508444  3
   2462   2461   2460   2467     1  0.0000000  0.6508444  3
   2462   2461   2460   2489     1  0.0000000  0.6508444  3
   2462   2461   2473   2485     1  0.0000000  0.6508444  3
   2462   2461   2473   2474     1  0.0000000  0.6508444  3
   2462   2461   2473   2475     1  0.0000000  0.6508444  3
   2463   2461   2460   2464     1  0.0000000  0.6508444  3
   2463   2461   2460   2467     1  0.0000000  0.6508444  3
   2463   2461   2460   2489     1  0.0000000  0.6508444  3
   2463   2461   2473   2485     1  0.0000000  0.6508444  3
   2463   2461   2473   2474     1  0.0000000  0.6508444  3
   2463   2461   2473   2475     1  0.0000000  0.6508444  3
   2464   2460   2467   2468     1  0.0000000  0.6508444  3
   2464   2460   2467   2469     1  0.0000000  0.6508444  3
   2464   2476   2482   2483     1  0.0000000  0.6508444  3
   2464   2476   2482   2484     1  0.0000000  0.6508444  3
   2465   2464   2460   2467     1  0.0000000  0.6508444  3
   2465   2464   2460   2489     1  0.0000000  0.6508444  3
   2465   2464   2476   2482     1  0.0000000  0.6508444  3
   2465   2464   2476   2477     1  0.0000000  0.6508444  3
   2465   2464   2476   2478     1  0.0000000  0.6508444  3
   2466   2464   2460   2467     1  0.0000000  0.6508444  3
   2466   2464   2460   2489     1  0.0000000  0.6508444  3
   2466   2464   2476   2482     1  0.0000000  0.6508444  3
   2466   2464   2476   2477     1  0.0000000  0.6508444  3
   2466   2464   2476   2478     1  0.0000000  0.6508444  3
   2467   2470   2479   2480     1  0.0000000  0.6508444  3
   2467   2470   2479   2481     1  0.0000000  0.6508444  3
   2468   2467   2460   2489     1  0.0000000  0.6508444  3
   2468   2467   2470   2479     1  0.0000000  0.6508444  3
   2468   2467   2470   2471     1  0.0000000  0.6508444  3
   2468   2467   2470   2472     1  0.0000000  0.6508444  3
   2469   2467   2460   2489     1  0.0000000  0.6508444  3
   2469   2467   2470   2479     1  0.0000000  0.6508444  3
   2469   2467   2470   2471     1  0.0000000  0.6508444  3
   2469   2467   2470   2472     1  0.0000000  0.6508444  3
   2470   2467   2460   2489     1  0.0000000  0.6508444  3
   2471   2470   2479   2488     1  0.0000000  1.0460000  1
   2471   2470   2479   2488     1  0.0000000  0.0000000  3
   2471   2470   2479   2480     1  0.0000000  0.6508444  3
   2471   2470   2479   2481     1  0.0000000  0.6508444  3
   2472   2470   2479   2488     1  0.0000000  1.0460000  1
   2472   2470   2479   2488     1  0.0000000  0.0000000  3
   2472   2470   2479   2480     1  0.0000000  0.6508444  3
   2472   2470   2479   2481     1  0.0000000  0.6508444  3
   2473   2461   2460   2489     1  0.0000000  0.6508444  3
   2474   2473   2485   3854     1  0.0000000  1.0460000  1
   2474   2473   2485   3854     1  0.0000000  0.0000000  3
   2474   2473   2485   2486     1  0.0000000  0.6508444  3
   2474   2473   2485   2487     1  0.0000000  0.6508444  3
   2475   2473   2485   3854     1  0.0000000  1.0460000  1
   2475   2473   2485   3854     1  0.0000000  0.0000000  3
   2475   2473   2485   2486     1  0.0000000  0.6508444  3
   2475   2473   2485   2487     1  0.0000000  0.6508444  3
   2476   2464   2460   2489     1  0.0000000  0.6508444  3
   2477   2476   2482   3840     1  0.0000000  1.0460000  1
   2477   2476   2482   3840     1  0.0000000  0.0000000  3
   2477   2476   2482   2483     1  0.0000000  0.6508444  3
   2477   2476   2482   2484     1  0.0000000  0.6508444  3
   2478   2476   2482   3840     1  0.0000000  1.0460000  1
   2478   2476   2482   3840     1  0.0000000  0.0000000  3
   2478   2476   2482   2483     1  0.0000000  0.6508444  3
   2478   2476   2482   2484     1  0.0000000  0.6508444  3
   2482   3840   3834   3835     1  0.0000000  1.6038667  3
   2482   3840   3834   3836     1  0.0000000  1.6038667  3
   2483   2482   3840   3834     1  0.0000000  1.6038667  3
   2484   2482   3840   3834     1  0.0000000  1.6038667  3
   2485   3854   3848   3849     1  0.0000000  1.6038667  3
   2485   3854   3848   3850     1  0.0000000  1.6038667  3
   2486   2485   3854   3848     1  0.0000000  1.6038667  3
   2487   2485   3854   3848     1  0.0000000  1.6038667  3
   2490   2491   2503   2504     1  0.0000000  0.6508444  3
   2490   2491   2503   2505     1  0.0000000  0.6508444  3
   2490   2494   2506   2507     1  0.0000000  0.6508444  3
   2490   2494   2506   2508     1  0.0000000  0.6508444  3
   2490   2497   2500   2501     1  0.0000000  0.6508444  3
   2490   2497   2500   2502     1  0.0000000  0.6508444  3
   2491   2490   2494   2495     1  0.0000000  0.6508444  3
   2491   2490   2494   2496     1  0.0000000  0.6508444  3
   2491   2490   2497   2498     1  0.0000000  0.6508444  3
   2491   2490   2497   2499     1  0.0000000  0.6508444  3
   2491   2503   2515   2516     1  0.0000000  0.6508444  3
   2491   2503   2515   2517     1  0.0000000  0.6508444  3
   2492   2491   2490   2494     1  0.0000000  0.6508444  3
   2492   2491   2490   2497     1  0.0000000  0.6508444  3
   2492   2491   2490   2519     1  0.0000000  0.6508444  3
   2492   2491   2503   2515     1  0.0000000  0.6508444  3
   2492   2491   2503   2504     1  0.0000000  0.6508444  3
   2492   2491   2503   2505     1  0.0000000  0.6508444  3
   2493   2491   2490   2494     1  0.0000000  0.6508444  3
   2493   2491   2490   2497     1  0.0000000  0.6508444  3
   2493   2491   2490   2519     1  0.0000000  0.6508444  3
   2493   2491   2503   2515     1  0.0000000  0.6508444  3
   2493   2491   2503   2504     1  0.0000000  0.6508444  3
   2493   2491   2503   2505     1  0.0000000  0.6508444  3
   2494   2490   2497   2498     1  0.0000000  0.6508444  3
   2494   2490   2497   2499     1  0.0000000  0.6508444  3
   2494   2506   2512   2513     1  0.0000000  0.6508444  3
   2494   2506   2512   2514     1  0.0000000  0.6508444  3
   2495   2494   2490   2497     1  0.0000000  0.6508444  3
   2495   2494   2490   2519     1  0.0000000  0.6508444  3
   2495   2494   2506   2512     1  0.0000000  0.6508444  3
   2495   2494   2506   2507     1  0.0000000  0.6508444  3
   2495   2494   2506   2508     1  0.0000000  0.6508444  3
   2496   2494   2490   2497     1  0.0000000  0.6508444  3
   2496   2494   2490   2519     1  0.0000000  0.6508444  3
   2496   2494   2506   2512     1  0.0000000  0.6508444  3
   2496   2494   2506   2507     1  0.0000000  0.6508444  3
   2496   2494   2506   2508     1  0.0000000  0.6508444  3
   2497   2500   2509   2510     1  0.0000000  0.6508444  3
   2497   2500   2509   2511     1  0.0000000  0.6508444  3
   2498   2497   2490   2519     1  0.0000000  0.6508444  3
   2498   2497   2500   2509     1  0.0000000  0.6508444  3
   2498   2497   2500   2501     1  0.0000000  0.6508444  3
   2498   2497   2500   2502     1  0.0000000  0.6508444  3
   2499   2497   2490   2519     1  0.0000000  0.6508444  3
   2499   2497   2500   2509     1  0.0000000  0.6508444  3
   2499   2497   2500   2501     1  0.0000000  0.6508444  3
   2499   2497   2500   2502     1  0.0000000  0.6508444  3
   2500   2497   2490   2519     1  0.0000000  0.6508444  3
   2501   2500   2509   2518     1  0.0000000  1.0460000  1
   2501   2500   2509   2518     1  0.0000000  0.0000000  3
   2501   2500   2509   2510     1  0.0000000  0.6508444  3
   2501   2500   2509   2511     1  0.0000000  0.6508444  3
   2502   2500   2509   2518     1  0.0000000  1.0460000  1
   2502   2500   2509   2518     1  0.0000000  0.0000000  3
   2502   2500   2509   2510     1  0.0000000  0.6508444  3
   2502   2500   2509   2511     1  0.0000000  0.6508444  3
   2503   2491   2490   2519     1  0.0000000  0.6508444  3
   2504   2503   2515   3882     1  0.0000000  1.0460000  1
   2504   2503   2515   3882     1  0.0000000  0.0000000  3
   2504   2503   2515   2516     1  0.0000000  0.6508444  3
   2504   2503   2515   2517     1  0.0000000  0.6508444  3
   2505   2503   2515   3882     1  0.0000000  1.0460000  1
   2505   2503   2515   3882     1  0.0000000  0.0000000  3
   2505   2503   2515   2516     1  0.0000000  0.6508444  3
   2505   2503   2515   2517     1  0.0000000  0.6508444  3
   2506   2494   2490   2519     1  0.0000000  0.6508444  3
   2507   2506   2512   3868     1  0.0000000  1.0460000  1
   2507   2506   2512   3868     1  0.0000000  0.0000000  3
   2507   2506   2512   2513     1  0.0000000  0.6508444  3
   2507   2506   2512   2514     1  0.0000000  0.6508444  3
   2508   2506   2512   3868     1  0.0000000  1.0460000  1
   2508   2506   2512   3868     1  0.0000000  0.0000000  3
   2508   2506   2512   2513     1  0.0000000  0.6508444  3
   2508   2506   2512   2514     1  0.0000000  0.6508444  3
   2512   3868   3862   3863     1  0.0000000  1.6038667  3
   2512   3868   3862   3864     1  0.0000000  1.6038667  3
   2513   2512   3868   3862     1  0.0000000  1.6038667  3
   2514   2512   3868   3862     1  0.0000000  1.6038667  3
   2515   3882   3876   3877     1  0.0000000  1.6038667  3
   2515   3882   3876   3878     1  0.0000000  1.6038667  3
   2516   2515   3882   3876     1  0.0000000  1.6038667  3
   2517   2515   3882   3876     1  0.0000000  1.6038667  3
   2520   2521   2533   2534     1  0.0000000  0.6508444  3
   2520   2521   2533   2535     1  0.0000000  0.6508444  3
   2520   2524   2536   2537     1  0.0000000  0.6508444  3
   2520   2524   2536   2538     1  0.0000000  0.6508444  3
   2520   2527   2530   2531     1  0.0000000  0.6508444  3
   2520   2527   2530   2532     1  0.0000000  0.6508444  3
   2521   2520   2524   2525     1  0.0000000  0.6508444  3
   2521   2520   2524   2526     1  0.0000000  0.6508444  3
   2521   2520   2527   2528     1  0.0000000  0.6508444  3
   2521   2520   2527   2529     1  0.0000000  0.6508444  3
   2521   2533   2545   2546     1  0.0000000  0.6508444  3
   2521   2533   2545   2547     1  0.0000000  0.6508444  3
   2522   2521   2520   2524     1  0.0000000  0.6508444  3
   2522   2521   2520   2527     1  0.0000000  0.6508444  3
   2522   2521   2520   2549     1  0.0000000  0.6508444  3
   2522   2521   2533   2545     1  0.0000000  0.6508444  3
   2522   2521   2533   2534     1  0.0000000  0.6508444  3
   2522   2521   2533   2535     1  0.0000000  0.6508444  3
   2523   2521   2520   2524     1  0.0000000  0.6508444  3
   2523   2521   2520   2527     1  0.0000000  0.6508444  3
   2523   2521   2520   2549     1  0.0000000  0.6508444  3
   2523   2521   2533   2545     1  0.0000000  0.6508444  3
   2523   2521   2533   2534     1  0.0000000  0.6508444  3
   2523   2521   2533   2535     1  0.0000000  0.6508444  3
   2524   2520   2527   2528     1  0.0000000  0.6508444  3
   2524   2520   2527   2529     1  0.0000000  0.6508444  3
   2524   2536   2542   2543     1  0.0000000  0.6508444  3
   2524   2536   2542   2544     1  0.0000000  0.6508444  3
   2525   2524   2520   2527     1  0.0000000  0.6508444  3
   2525   2524   2520   2549     1  0.0000000  0.6508444  3
   2525   2524   2536   2542     1  0.0000000  0.6508444  3
   2525   2524   2536   2537     1  0.0000000  0.6508444  3
   2525   2524   2536   2538     1  0.0000000  0.6508444  3
   2526   2524   2520   2527     1  0.0000000  0.6508444  3
   2526   2524   2520   2549     1  0.0000000  0.6508444  3
   2526   2524   2536   2542     1  0.0000000  0.6508444  3
   2526   2524   2536   2537     1  0.0000000  0.6508444  3
   2526   2524   2536   2538     1  0.0000000  0.6508444  3
   2527   2530   2539   2540     1  0.0000000  0.6508444  3
   2527   2530   2539   2541     1  0.0000000  0.6508444  3
   2528   2527   2520   2549     1  0.0000000  0.6508444  3
   2528   2527   2530   2539     1  0.0000000  0.6508444  3
   2528   2527   2530   2531     1  0.0000000  0.6508444  3
   2528   2527   2530   2532     1  0.0000000  0.6508444  3
   2529   2527   2520   2549     1  0.0000000  0.6508444  3
   2529   2527   2530   2539     1  0.0000000  0.6508444  3
   2529   2527   2530   2531     1  0.0000000  0.6508444  3
   2529   2527   2530   2532     1  0.0000000  0.6508444  3
   2530   2527   2520   2549     1  0.0000000  0.6508444  3
   2531   2530   2539   2548     1  0.0000000  1.0460000  1
   2531   2530   2539   2548     1  0.0000000  0.0000000  3
   2531   2530   2539   2540     1  0.0000000  0.6508444  3
   2531   2530   2539   2541     1  0.0000000  0.6508444  3
   2532   2530   2539   2548     1  0.0000000  1.0460000  1
   2532   2530   2539   2548     1  0.0000000  0.0000000  3
   2532   2530   2539   2540     1  0.0000000  0.6508444  3
   2532   2530   2539   2541     1  0.0000000  0.6508444  3
   2533   2521   2520   2549     1  0.0000000  0.6508444  3
   2534   2533   2545   3910     1  0.0000000  1.0460000  1
   2534   2533   2545   3910     1  0.0000000  0.0000000  3
   2534   2533   2545   2546     1  0.0000000  0.6508444  3
   2534   2533   2545   2547     1  0.0000000  0.6508444  3
   2535   2533   2545   3910     1  0.0000000  1.0460000  1
   2535   2533   2545   3910     1  0.0000000  0.0000000  3
   2535   2533   2545   2546     1  0.0000000  0.6508444  3
   2535   2533   2545   2547     1  0.0000000  0.6508444  3
   2536   2524   2520   2549     1  0.0000000  0.6508444  3
   2537   2536   2542   3896     1  0.0000000  1.0460000  1
   2537   2536   2542   3896     1  0.0000000  0.0000000  3
   2537   2536   2542   2543     1  0.0000000  0.6508444  3
   2537   2536   2542   2544     1  0.0000000  0.6508444  3
   2538   2536   2542   3896     1  0.0000000  1.0460000  1
   2538   2536   2542   3896     1  0.0000000  0.0000000  3
   2538   2536   2542   2543     1  0.0000000  0.6508444  3
   2538   2536   2542   2544     1  0.0000000  0.6508444  3
   2542   3896   3890   3891     1  0.0000000  1.6038667  3
   2542   3896   3890   3892     1  0.0000000  1.6038667  3
   2543   2542   3896   3890     1  0.0000000  1.6038667  3
   2544   2542   3896   3890     1  0.0000000  1.6038667  3
   2545   3910   3904   3905     1  0.0000000  1.6038667  3
   2545   3910   3904   3906     1  0.0000000  1.6038667  3
   2546   2545   3910   3904     1  0.0000000  1.6038667  3
   2547   2545   3910   3904     1  0.0000000  1.6038667  3
   2550   2551   2563   2564     1  0.0000000  0.6508444  3
   2550   2551   2563   2565     1  0.0000000  0.6508444  3
   2550   2554   2566   2567     1  0.0000000  0.6508444  3
   2550   2554   2566   2568     1  0.0000000  0.6508444  3
   2550   2557   2560   2561     1  0.0000000  0.6508444  3
   2550   2557   2560   2562     1  0.0000000  0.6508444  3
   2551   2550   2554   2555     1  0.0000000  0.6508444  3
   2551   2550   2554   2556     1  0.0000000  0.6508444  3
   2551   2550   2557   2558     1  0.0000000  0.6508444  3
   2551   2550   2557   2559     1  0.0000000  0.6508444  3
   2551   2563   2575   2576     1  0.0000000  0.6508444  3
   2551   2563   2575   2577     1  0.0000000  0.6508444  3
   2552   2551   2550   2554     1  0.0000000  0.6508444  3
   2552   2551   2550   2557     1  0.0000000  0.6508444  3
   2552   2551   2550   2579     1  0.0000000  0.6508444  3
   2552   2551   2563   2575     1  0.0000000  0.6508444  3
   2552   2551   2563   2564     1  0.0000000  0.6508444  3
   2552   2551   2563   2565     1  0.0000000  0.6508444  3
   2553   2551   2550   2554     1  0.0000000  0.6508444  3
   2553   2551   2550   2557     1  0.0000000  0.6508444  3
   2553   2551   2550   2579     1  0.0000000  0.6508444  3
   2553   2551   2563   2575     1  0.0000000  0.6508444  3
   2553   2551   2563   2564     1  0.0000000  0.6508444  3
   2553   2551   2563   2565     1  0.0000000  0.6508444  3
   2554   2550   2557   2558     1  0.0000000  0.6508444  3
   2554   2550   2557   2559     1  0.0000000  0.6508444  3
   2554   2566   2572   2573     1  0.0000000  0.6508444  3
   2554   2566   2572   2574     1  0.0000000  0.6508444  3
   2555   2554   2550   2557     1  0.0000000  0.6508444  3
   2555   2554   2550   2579     1  0.0000000  0.6508444  3
   2555   2554   2566   2572     1  0.0000000  0.6508444  3
   2555   2554   2566   2567     1  0.0000000  0.6508444  3
   2555   2554   2566   2568     1  0.0000000  0.6508444  3
   2556   2554   2550   2557     1  0.0000000  0.6508444  3
   2556   2554   2550   2579     1  0.0000000  0.6508444  3
   2556   2554   2566   2572     1  0.0000000  0.6508444  3
   2556   2554   2566   2567     1  0.0000000  0.6508444  3
   2556   2554   2566   2568     1  0.0000000  0.6508444  3
   2557   2560   2569   2570     1  0.0000000  0.6508444  3
   2557   2560   2569   2571     1  0.0000000  0.6508444  3
   2558   2557   2550   2579     1  0.0000000  0.6508444  3
   2558   2557   2560   2569     1  0.0000000  0.6508444  3
   2558   2557   2560   2561     1  0.0000000  0.6508444  3
   2558   2557   2560   2562     1  0.0000000  0.6508444  3
   2559   2557   2550   2579     1  0.0000000  0.6508444  3
   2559   2557   2560   2569     1  0.0000000  0.6508444  3
   2559   2557   2560   2561     1  0.0000000  0.6508444  3
   2559   2557   2560   2562     1  0.0000000  0.6508444  3
   2560   2557   2550   2579     1  0.0000000  0.6508444  3
   2561   2560   2569   2578     1  0.0000000  1.0460000  1
   2561   2560   2569   2578     1  0.0000000  0.0000000  3
   2561   2560   2569   2570     1  0.0000000  0.6508444  3
   2561   2560   2569   2571     1  0.0000000  0.6508444  3
   2562   2560   2569   2578     1  0.0000000  1.0460000  1
   2562   2560   2569   2578     1  0.0000000  0.0000000  3
   2562   2560   2569   2570     1  0.0000000  0.6508444  3
   2562   2560   2569   2571     1  0.0000000  0.6508444  3
   2563   2551   2550   2579     1  0.0000000  0.6508444  3
   2564   2563   2575   3938     1  0.0000000  1.0460000  1
   2564   2563   2575   3938     1  0.0000000  0.0000000  3
   2564   2563   2575   2576     1  0.0000000  0.6508444  3
   2564   2563   2575   2577     1  0.0000000  0.6508444  3
   2565   2563   2575   3938     1  0.0000000  1.0460000  1
   2565   2563   2575   3938     1  0.0000000  0.0000000  3
   2565   2563   2575   2576     1  0.0000000  0.6508444  3
   2565   2563   2575   2577     1  0.0000000  0.6508444  3
   2566   2554   2550   2579     1  0.0000000  0.6508444  3
   2567   2566   2572   3924     1  0.0000000  1.0460000  1
   2567   2566   2572   3924     1  0.0000000  0.0000000  3
   2567   2566   2572   2573     1  0.0000000  0.6508444  3
   2567   2566   2572   2574     1  0.0000000  0.6508444  3
   2568   2566   2572   3924     1  0.0000000  1.0460000  1
   2568   2566   2572   3924     1  0.0000000  0.0000000  3
   2568   2566   2572   2573     1  0.0000000  0.6508444  3
   2568   2566   2572   2574     1  0.0000000  0.6508444  3
   2572   3924   3918   3919     1  0.0000000  1.6038667  3
   2572   3924   3918   3920     1  0.0000000  1.6038667  3
   2573   2572   3924   3918     1  0.0000000  1.6038667  3
   2574   2572   3924   3918     1  0.0000000  1.6038667  3
   2575   3938   3932   3933     1  0.0000000  1.6038667  3
   2575   3938   3932   3934     1  0.0000000  1.6038667  3
   2576   2575   3938   3932     1  0.0000000  1.6038667  3
   2577   2575   3938   3932     1  0.0000000  1.6038667  3
   2580   2581   2593   2594     1  0.0000000  0.6508444  3
   2580   2581   2593   2595     1  0.0000000  0.6508444  3
   2580   2584   2596   2597     1  0.0000000  0.6508444  3
   2580   2584   2596   2598     1  0.0000000  0.6508444  3
   2580   2587   2590   2591     1  0.0000000  0.6508444  3
   2580   2587   2590   2592     1  0.0000000  0.6508444  3
   2581   2580   2584   2585     1  0.0000000  0.6508444  3
   2581   2580   2584   2586     1  0.0000000  0.6508444  3
   2581   2580   2587   2588     1  0.0000000  0.6508444  3
   2581   2580   2587   2589     1  0.0000000  0.6508444  3
   2581   2593   2605   2606     1  0.0000000  0.6508444  3
   2581   2593   2605   2607     1  0.0000000  0.6508444  3
   2582   2581   2580   2584     1  0.0000000  0.6508444  3
   2582   2581   2580   2587     1  0.0000000  0.6508444  3
   2582   2581   2580   2609     1  0.0000000  0.6508444  3
   2582   2581   2593   2605     1  0.0000000  0.6508444  3
   2582   2581   2593   2594     1  0.0000000  0.6508444  3
   2582   2581   2593   2595     1  0.0000000  0.6508444  3
   2583   2581   2580   2584     1  0.0000000  0.6508444  3
   2583   2581   2580   2587     1  0.0000000  0.6508444  3
   2583   2581   2580   2609     1  0.0000000  0.6508444  3
   2583   2581   2593   2605     1  0.0000000  0.6508444  3
   2583   2581   2593   2594     1  0.0000000  0.6508444  3
   2583   2581   2593   2595     1  0.0000000  0.6508444  3
   2584   2580   2587   2588     1  0.0000000  0.6508444  3
   2584   2580   2587   2589     1  0.0000000  0.6508444  3
   2584   2596   2602   2603     1  0.0000000  0.6508444  3
   2584   2596   2602   2604     1  0.0000000  0.6508444  3
   2585   2584   2580   2587     1  0.0000000  0.6508444  3
   2585   2584   2580   2609     1  0.0000000  0.6508444  3
   2585   2584   2596   2602     1  0.0000000  0.6508444  3
   2585   2584   2596   2597     1  0.0000000  0.6508444  3
   2585   2584   2596   2598     1  0.0000000  0.6508444  3
   2586   2584   2580   2587     1  0.0000000  0.6508444  3
   2586   2584   2580   2609     1  0.0000000  0.6508444  3
   2586   2584   2596   2602     1  0.0000000  0.6508444  3
   2586   2584   2596   2597     1  0.0000000  0.6508444  3
   2586   2584   2596   2598     1  0.0000000  0.6508444  3
   2587   2590   2599   2600     1  0.0000000  0.6508444  3
   2587   2590   2599   2601     1  0.0000000  0.6508444  3
   2588   2587   2580   2609     1  0.0000000  0.6508444  3
   2588   2587   2590   2599     1  0.0000000  0.6508444  3
   2588   2587   2590   2591     1  0.0000000  0.6508444  3
   2588   2587   2590   2592     1  0.0000000  0.6508444  3
   2589   2587   2580   2609     1  0.0000000  0.6508444  3
   2589   2587   2590   2599     1  0.0000000  0.6508444  3
   2589   2587   2590   2591     1  0.0000000  0.6508444  3
   2589   2587   2590   2592     1  0.0000000  0.6508444  3
   2590   2587   2580   2609     1  0.0000000  0.6508444  3
   2591   2590   2599   2608     1  0.0000000  1.0460000  1
   2591   2590   2599   2608     1  0.0000000  0.0000000  3
   2591   2590   2599   2600     1  0.0000000  0.6508444  3
   2591   2590   2599   2601     1  0.0000000  0.6508444  3
   2592   2590   2599   2608     1  0.0000000  1.0460000  1
   2592   2590   2599   2608     1  0.0000000  0.0000000  3
   2592   2590   2599   2600     1  0.0000000  0.6508444  3
   2592   2590   2599   2601     1  0.0000000  0.6508444  3
   2593   2581   2580   2609     1  0.0000000  0.6508444  3
   2594   2593   2605   3966     1  0.0000000  1.0460000  1
   2594   2593   2605   3966     1  0.0000000  0.0000000  3
   2594   2593   2605   2606     1  0.0000000  0.6508444  3
   2594   2593   2605   2607     1  0.0000000  0.6508444  3
   2595   2593   2605   3966     1  0.0000000  1.0460000  1
   2595   2593   2605   3966     1  0.0000000  0.0000000  3
   2595   2593   2605   2606     1  0.0000000  0.6508444  3
   2595   2593   2605   2607     1  0.0000000  0.6508444  3
   2596   2584   2580   2609     1  0.0000000  0.6508444  3
   2597   2596   2602   3952     1  0.0000000  1.0460000  1
   2597   2596   2602   3952     1  0.0000000  0.0000000  3
   2597   2596   2602   2603     1  0.0000000  0.6508444  3
   2597   2596   2602   2604     1  0.0000000  0.6508444  3
   2598   2596   2602   3952     1  0.0000000  1.0460000  1
   2598   2596   2602   3952     1  0.0000000  0.0000000  3
   2598   2596   2602   2603     1  0.0000000  0.6508444  3
   2598   2596   2602   2604     1  0.0000000  0.6508444  3
   2602   3952   3946   3947     1  0.0000000  1.6038667  3
   2602   3952   3946   3948     1  0.0000000  1.6038667  3
   2603   2602   3952   3946     1  0.0000000  1.6038667  3
   2604   2602   3952   3946     1  0.0000000  1.6038667  3
   2605   3966   3960   3961     1  0.0000000  1.6038667  3
   2605   3966   3960   3962     1  0.0000000  1.6038667  3
   2606   2605   3966   3960     1  0.0000000  1.6038667  3
   2607   2605   3966   3960     1  0.0000000  1.6038667  3
   2610   2611   2623   2624     1  0.0000000  0.6508444  3
   2610   2611   2623   2625     1  0.0000000  0.6508444  3
   2610   2614   2626   2627     1  0.0000000  0.6508444  3
   2610   2614   2626   2628     1  0.0000000  0.6508444  3
   2610   2617   2620   2621     1  0.0000000  0.6508444  3
   2610   2617   2620   2622     1  0.0000000  0.6508444  3
   2611   2610   2614   2615     1  0.0000000  0.6508444  3
   2611   2610   2614   2616     1  0.0000000  0.6508444  3
   2611   2610   2617   2618     1  0.0000000  0.6508444  3
   2611   2610   2617   2619     1  0.0000000  0.6508444  3
   2611   2623   2635   2636     1  0.0000000  0.6508444  3
   2611   2623   2635   2637     1  0.0000000  0.6508444  3
   2612   2611   2610   2614     1  0.0000000  0.6508444  3
   2612   2611   2610   2617     1  0.0000000  0.6508444  3
   2612   2611   2610   2639     1  0.0000000  0.6508444  3
   2612   2611   2623   2635     1  0.0000000  0.6508444  3
   2612   2611   2623   2624     1  0.0000000  0.6508444  3
   2612   2611   2623   2625     1  0.0000000  0.6508444  3
   2613   2611   2610   2614     1  0.0000000  0.6508444  3
   2613   2611   2610   2617     1  0.0000000  0.6508444  3
   2613   2611   2610   2639     1  0.0000000  0.6508444  3
   2613   2611   2623   2635     1  0.0000000  0.6508444  3
   2613   2611   2623   2624     1  0.0000000  0.6508444  3
   2613   2611   2623   2625     1  0.0000000  0.6508444  3
   2614   2610   2617   2618     1  0.0000000  0.6508444  3
   2614   2610   2617   2619     1  0.0000000  0.6508444  3
   2614   2626   2632   2633     1  0.0000000  0.6508444  3
   2614   2626   2632   2634     1  0.0000000  0.6508444  3
   2615   2614   2610   2617     1  0.0000000  0.6508444  3
   2615   2614   2610   2639     1  0.0000000  0.6508444  3
   2615   2614   2626   2632     1  0.0000000  0.6508444  3
   2615   2614   2626   2627     1  0.0000000  0.6508444  3
   2615   2614   2626   2628     1  0.0000000  0.6508444  3
   2616   2614   2610   2617     1  0.0000000  0.6508444  3
   2616   2614   2610   2639     1  0.0000000  0.6508444  3
   2616   2614   2626   2632     1  0.0000000  0.6508444  3
   2616   2614   2626   2627     1  0.0000000  0.6508444  3
   2616   2614   2626   2628     1  0.0000000  0.6508444  3
   2617   2620   2629   2630     1  0.0000000  0.6508444  3
   2617   2620   2629   2631     1  0.0000000  0.6508444  3
   2618   2617   2610   2639     1  0.0000000  0.6508444  3
   2618   2617   2620   2629     1  0.0000000  0.6508444  3
   2618   2617   2620   2621     1  0.0000000  0.6508444  3
   2618   2617   2620   2622     1  0.0000000  0.6508444  3
   2619   2617   2610   2639     1  0.0000000  0.6508444  3
   2619   2617   2620   2629     1  0.0000000  0.6508444  3
   2619   2617   2620   2621     1  0.0000000  0.6508444  3
   2619   2617   2620   2622     1  0.0000000  0.6508444  3
   2620   2617   2610   2639     1  0.0000000  0.6508444  3
   2621   2620   2629   2638     1  0.0000000  1.0460000  1
   2621   2620   2629   2638     1  0.0000000  0.0000000  3
   2621   2620   2629   2630     1  0.0000000  0.6508444  3
   2621   2620   2629   2631     1  0.0000000  0.6508444  3
   2622   2620   2629   2638     1  0.0000000  1.0460000  1
   2622   2620   2629   2638     1  0.0000000  0.0000000  3
   2622   2620   2629   2630     1  0.0000000  0.6508444  3
   2622   2620   2629   2631     1  0.0000000  0.6508444  3
   2623   2611   2610   2639     1  0.0000000  0.6508444  3
   2624   2623   2635   3994     1  0.0000000  1.0460000  1
   2624   2623   2635   3994     1  0.0000000  0.0000000  3
   2624   2623   2635   2636     1  0.0000000  0.6508444  3
   2624   2623   2635   2637     1  0.0000000  0.6508444  3
   2625   2623   2635   3994     1  0.0000000  1.0460000  1
   2625   2623   2635   3994     1  0.0000000  0.0000000  3
   2625   2623   2635   2636     1  0.0000000  0.6508444  3
   2625   2623   2635   2637     1  0.0000000  0.6508444  3
   2626   2614   2610   2639     1  0.0000000  0.6508444  3
   2627   2626   2632   3980     1  0.0000000  1.0460000  1
   2627   2626   2632   3980     1  0.0000000  0.0000000  3
   2627   2626   2632   2633     1  0.0000000  0.6508444  3
   2627   2626   2632   2634     1  0.0000000  0.6508444  3
   2628   2626   2632   3980     1  0.0000000  1.0460000  1
   2628   2626   2632   3980     1  0.0000000  0.0000000  3
   2628   2626   2632   2633     1  0.0000000  0.6508444  3
   2628   2626   2632   2634     1  0.0000000  0.6508444  3
   2632   3980   3974   3975     1  0.0000000  1.6038667  3
   2632   3980   3974   3976     1  0.0000000  1.6038667  3
   2633   2632   3980   3974     1  0.0000000  1.6038667  3
   2634   2632   3980   3974     1  0.0000000  1.6038667  3
   2635   3994   3988   3989     1  0.0000000  1.6038667  3
   2635   3994   3988   3990     1  0.0000000  1.6038667  3
   2636   2635   3994   3988     1  0.0000000  1.6038667  3
   2637   2635   3994   3988     1  0.0000000  1.6038667  3
   2640   2641   2653   2654     1  0.0000000  0.6508444  3
   2640   2641   2653   2655     1  0.0000000  0.6508444  3
   2640   2644   2656   2657     1  0.0000000  0.6508444  3
   2640   2644   2656   2658     1  0.0000000  0.6508444  3
   2640   2647   2650   2651     1  0.0000000  0.6508444  3
   2640   2647   2650   2652     1  0.0000000  0.6508444  3
   2641   2640   2644   2645     1  0.0000000  0.6508444  3
   2641   2640   2644   2646     1  0.0000000  0.6508444  3
   2641   2640   2647   2648     1  0.0000000  0.6508444  3
   2641   2640   2647   2649     1  0.0000000  0.6508444  3
   2641   2653   2665   2666     1  0.0000000  0.6508444  3
   2641   2653   2665   2667     1  0.0000000  0.6508444  3
   2642   2641   2640   2644     1  0.0000000  0.6508444  3
   2642   2641   2640   2647     1  0.0000000  0.6508444  3
   2642   2641   2640   2669     1  0.0000000  0.6508444  3
   2642   2641   2653   2665     1  0.0000000  0.6508444  3
   2642   2641   2653   2654     1  0.0000000  0.6508444  3
   2642   2641   2653   2655     1  0.0000000  0.6508444  3
   2643   2641   2640   2644     1  0.0000000  0.6508444  3
   2643   2641   2640   2647     1  0.0000000  0.6508444  3
   2643   2641   2640   2669     1  0.0000000  0.6508444  3
   2643   2641   2653   2665     1  0.0000000  0.6508444  3
   2643   2641   2653   2654     1  0.0000000  0.6508444  3
   2643   2641   2653   2655     1  0.0000000  0.6508444  3
   2644   2640   2647   2648     1  0.0000000  0.6508444  3
   2644   2640   2647   2649     1  0.0000000  0.6508444  3
   2644   2656   2662   2663     1  0.0000000  0.6508444  3
   2644   2656   2662   2664     1  0.0000000  0.6508444  3
   2645   2644   2640   2647     1  0.0000000  0.6508444  3
   2645   2644   2640   2669     1  0.0000000  0.6508444  3
   2645   2644   2656   2662     1  0.0000000  0.6508444  3
   2645   2644   2656   2657     1  0.0000000  0.6508444  3
   2645   2644   2656   2658     1  0.0000000  0.6508444  3
   2646   2644   2640   2647     1  0.0000000  0.6508444  3
   2646   2644   2640   2669     1  0.0000000  0.6508444  3
   2646   2644   2656   2662     1  0.0000000  0.6508444  3
   2646   2644   2656   2657     1  0.0000000  0.6508444  3
   2646   2644   2656   2658     1  0.0000000  0.6508444  3
   2647   2650   2659   2660     1  0.0000000  0.6508444  3
   2647   2650   2659   2661     1  0.0000000  0.6508444  3
   2648   2647   2640   2669     1  0.0000000  0.6508444  3
   2648   2647   2650   2659     1  0.0000000  0.6508444  3
   2648   2647   2650   2651     1  0.0000000  0.6508444  3
   2648   2647   2650   2652     1  0.0000000  0.6508444  3
   2649   2647   2640   2669     1  0.0000000  0.6508444  3
   2649   2647   2650   2659     1  0.0000000  0.6508444  3
   2649   2647   2650   2651     1  0.0000000  0.6508444  3
   2649   2647   2650   2652     1  0.0000000  0.6508444  3
   2650   2647   2640   2669     1  0.0000000  0.6508444  3
   2651   2650   2659   2668     1  0.0000000  1.0460000  1
   2651   2650   2659   2668     1  0.0000000  0.0000000  3
   2651   2650   2659   2660     1  0.0000000  0.6508444  3
   2651   2650   2659   2661     1  0.0000000  0.6508444  3
   2652   2650   2659   2668     1  0.0000000  1.0460000  1
   2652   2650   2659   2668     1  0.0000000  0.0000000  3
   2652   2650   2659   2660     1  0.0000000  0.6508444  3
   2652   2650   2659   2661     1  0.0000000  0.6508444  3
   2653   2641   2640   2669     1  0.0000000  0.6508444  3
   2654   2653   2665   4022     1  0.0000000  1.0460000  1
   2654   2653   2665   4022     1  0.0000000  0.0000000  3
   2654   2653   2665   2666     1  0.0000000  0.6508444  3
   2654   2653   2665   2667     1  0.0000000  0.6508444  3
   2655   2653   2665   4022     1  0.0000000  1.0460000  1
   2655   2653   2665   4022     1  0.0000000  0.0000000  3
   2655   2653   2665   2666     1  0.0000000  0.6508444  3
   2655   2653   2665   2667     1  0.0000000  0.6508444  3
   2656   2644   2640   2669     1  0.0000000  0.6508444  3
   2657   2656   2662   4008     1  0.0000000  1.0460000  1
   2657   2656   2662   4008     1  0.0000000  0.0000000  3
   2657   2656   2662   2663     1  0.0000000  0.6508444  3
   2657   2656   2662   2664     1  0.0000000  0.6508444  3
   2658   2656   2662   4008     1  0.0000000  1.0460000  1
   2658   2656   2662   4008     1  0.0000000  0.0000000  3
   2658   2656   2662   2663     1  0.0000000  0.6508444  3
   2658   2656   2662   2664     1  0.0000000  0.6508444  3
   2662   4008   4002   4003     1  0.0000000  1.6038667  3
   2662   4008   4002   4004     1  0.0000000  1.6038667  3
   2663   2662   4008   4002     1  0.0000000  1.6038667  3
   2664   2662   4008   4002     1  0.0000000  1.6038667  3
   2665   4022   4016   4017     1  0.0000000  1.6038667  3
   2665   4022   4016   4018     1  0.0000000  1.6038667  3
   2666   2665   4022   4016     1  0.0000000  1.6038667  3
   2667   2665   4022   4016     1  0.0000000  1.6038667  3
   2670   2671   2683   2684     1  0.0000000  0.6508444  3
   2670   2671   2683   2685     1  0.0000000  0.6508444  3
   2670   2674   2686   2687     1  0.0000000  0.6508444  3
   2670   2674   2686   2688     1  0.0000000  0.6508444  3
   2670   2677   2680   2681     1  0.0000000  0.6508444  3
   2670   2677   2680   2682     1  0.0000000  0.6508444  3
   2671   2670   2674   2675     1  0.0000000  0.6508444  3
   2671   2670   2674   2676     1  0.0000000  0.6508444  3
   2671   2670   2677   2678     1  0.0000000  0.6508444  3
   2671   2670   2677   2679     1  0.0000000  0.6508444  3
   2671   2683   2695   2696     1  0.0000000  0.6508444  3
   2671   2683   2695   2697     1  0.0000000  0.6508444  3
   2672   2671   2670   2674     1  0.0000000  0.6508444  3
   2672   2671   2670   2677     1  0.0000000  0.6508444  3
   2672   2671   2670   2699     1  0.0000000  0.6508444  3
   2672   2671   2683   2695     1  0.0000000  0.6508444  3
   2672   2671   2683   2684     1  0.0000000  0.6508444  3
   2672   2671   2683   2685     1  0.0000000  0.6508444  3
   2673   2671   2670   2674     1  0.0000000  0.6508444  3
   2673   2671   2670   2677     1  0.0000000  0.6508444  3
   2673   2671   2670   2699     1  0.0000000  0.6508444  3
   2673   2671   2683   2695     1  0.0000000  0.6508444  3
   2673   2671   2683   2684     1  0.0000000  0.6508444  3
   2673   2671   2683   2685     1  0.0000000  0.6508444  3
   2674   2670   2677   2678     1  0.0000000  0.6508444  3
   2674   2670   2677   2679     1  0.0000000  0.6508444  3
   2674   2686   2692   2693     1  0.0000000  0.6508444  3
   2674   2686   2692   2694     1  0.0000000  0.6508444  3
   2675   2674   2670   2677     1  0.0000000  0.6508444  3
   2675   2674   2670   2699     1  0.0000000  0.6508444  3
   2675   2674   2686   2692     1  0.0000000  0.6508444  3
   2675   2674   2686   2687     1  0.0000000  0.6508444  3
   2675   2674   2686   2688     1  0.0000000  0.6508444  3
   2676   2674   2670   2677     1  0.0000000  0.6508444  3
   2676   2674   2670   2699     1  0.0000000  0.6508444  3
   2676   2674   2686   2692     1  0.0000000  0.6508444  3
   2676   2674   2686   2687     1  0.0000000  0.6508444  3
   2676   2674   2686   2688     1  0.0000000  0.6508444  3
   2677   2680   2689   2690     1  0.0000000  0.6508444  3
   2677   2680   2689   2691     1  0.0000000  0.6508444  3
   2678   2677   2670   2699     1  0.0000000  0.6508444  3
   2678   2677   2680   2689     1  0.0000000  0.6508444  3
   2678   2677   2680   2681     1  0.0000000  0.6508444  3
   2678   2677   2680   2682     1  0.0000000  0.6508444  3
   2679   2677   2670   2699     1  0.0000000  0.6508444  3
   2679   2677   2680   2689     1  0.0000000  0.6508444  3
   2679   2677   2680   2681     1  0.0000000  0.6508444  3
   2679   2677   2680   2682     1  0.0000000  0.6508444  3
   2680   2677   2670   2699     1  0.0000000  0.6508444  3
   2681   2680   2689   2698     1  0.0000000  1.0460000  1
   2681   2680   2689   2698     1  0.0000000  0.0000000  3
   2681   2680   2689   2690     1  0.0000000  0.6508444  3
   2681   2680   2689   2691     1  0.0000000  0.6508444  3
   2682   2680   2689   2698     1  0.0000000  1.0460000  1
   2682   2680   2689   2698     1  0.0000000  0.0000000  3
   2682   2680   2689   2690     1  0.0000000  0.6508444  3
   2682   2680   2689   2691     1  0.0000000  0.6508444  3
   2683   2671   2670   2699     1  0.0000000  0.6508444  3
   2684   2683   2695   4050     1  0.0000000  1.0460000  1
   2684   2683   2695   4050     1  0.0000000  0.0000000  3
   2684   2683   2695   2696     1  0.0000000  0.6508444  3
   2684   2683   2695   2697     1  0.0000000  0.6508444  3
   2685   2683   2695   4050     1  0.0000000  1.0460000  1
   2685   2683   2695   4050     1  0.0000000  0.0000000  3
   2685   2683   2695   2696     1  0.0000000  0.6508444  3
   2685   2683   2695   2697     1  0.0000000  0.6508444  3
   2686   2674   2670   2699     1  0.0000000  0.6508444  3
   2687   2686   2692   4036     1  0.0000000  1.0460000  1
   2687   2686   2692   4036     1  0.0000000  0.0000000  3
   2687   2686   2692   2693     1  0.0000000  0.6508444  3
   2687   2686   2692   2694     1  0.0000000  0.6508444  3
   2688   2686   2692   4036     1  0.0000000  1.0460000  1
   2688   2686   2692   4036     1  0.0000000  0.0000000  3
   2688   2686   2692   2693     1  0.0000000  0.6508444  3
   2688   2686   2692   2694     1  0.0000000  0.6508444  3
   2692   4036   4030   4031     1  0.0000000  1.6038667  3
   2692   4036   4030   4032     1  0.0000000  1.6038667  3
   2693   2692   4036   4030     1  0.0000000  1.6038667  3
   2694   2692   4036   4030     1  0.0000000  1.6038667  3
   2695   4050   4044   4045     1  0.0000000  1.6038667  3
   2695   4050   4044   4046     1  0.0000000  1.6038667  3
   2696   2695   4050   4044     1  0.0000000  1.6038667  3
   2697   2695   4050   4044     1  0.0000000  1.6038667  3
   2700   2701   2713   2714     1  0.0000000  0.6508444  3
   2700   2701   2713   2715     1  0.0000000  0.6508444  3
   2700   2704   2716   2717     1  0.0000000  0.6508444  3
   2700   2704   2716   2718     1  0.0000000  0.6508444  3
   2700   2707   2710   2711     1  0.0000000  0.6508444  3
   2700   2707   2710   2712     1  0.0000000  0.6508444  3
   2701   2700   2704   2705     1  0.0000000  0.6508444  3
   2701   2700   2704   2706     1  0.0000000  0.6508444  3
   2701   2700   2707   2708     1  0.0000000  0.6508444  3
   2701   2700   2707   2709     1  0.0000000  0.6508444  3
   2701   2713   2725   2726     1  0.0000000  0.6508444  3
   2701   2713   2725   2727     1  0.0000000  0.6508444  3
   2702   2701   2700   2704     1  0.0000000  0.6508444  3
   2702   2701   2700   2707     1  0.0000000  0.6508444  3
   2702   2701   2700   2729     1  0.0000000  0.6508444  3
   2702   2701   2713   2725     1  0.0000000  0.6508444  3
   2702   2701   2713   2714     1  0.0000000  0.6508444  3
   2702   2701   2713   2715     1  0.0000000  0.6508444  3
   2703   2701   2700   2704     1  0.0000000  0.6508444  3
   2703   2701   2700   2707     1  0.0000000  0.6508444  3
   2703   2701   2700   2729     1  0.0000000  0.6508444  3
   2703   2701   2713   2725     1  0.0000000  0.6508444  3
   2703   2701   2713   2714     1  0.0000000  0.6508444  3
   2703   2701   2713   2715     1  0.0000000  0.6508444  3
   2704   2700   2707   2708     1  0.0000000  0.6508444  3
   2704   2700   2707   2709     1  0.0000000  0.6508444  3
   2704   2716   2722   2723     1  0.0000000  0.6508444  3
   2704   2716   2722   2724     1  0.0000000  0.6508444  3
   2705   2704   2700   2707     1  0.0000000  0.6508444  3
   2705   2704   2700   2729     1  0.0000000  0.6508444  3
   2705   2704   2716   2722     1  0.0000000  0.6508444  3
   2705   2704   2716   2717     1  0.0000000  0.6508444  3
   2705   2704   2716   2718     1  0.0000000  0.6508444  3
   2706   2704   2700   2707     1  0.0000000  0.6508444  3
   2706   2704   2700   2729     1  0.0000000  0.6508444  3
   2706   2704   2716   2722     1  0.0000000  0.6508444  3
   2706   2704   2716   2717     1  0.0000000  0.6508444  3
   2706   2704   2716   2718     1  0.0000000  0.6508444  3
   2707   2710   2719   2720     1  0.0000000  0.6508444  3
   2707   2710   2719   2721     1  0.0000000  0.6508444  3
   2708   2707   2700   2729     1  0.0000000  0.6508444  3
   2708   2707   2710   2719     1  0.0000000  0.6508444  3
   2708   2707   2710   2711     1  0.0000000  0.6508444  3
   2708   2707   2710   2712     1  0.0000000  0.6508444  3
   2709   2707   2700   2729     1  0.0000000  0.6508444  3
   2709   2707   2710   2719     1  0.0000000  0.6508444  3
   2709   2707   2710   2711     1  0.0000000  0.6508444  3
   2709   2707   2710   2712     1  0.0000000  0.6508444  3
   2710   2707   2700   2729     1  0.0000000  0.6508444  3
   2711   2710   2719   2728     1  0.0000000  1.0460000  1
   2711   2710   2719   2728     1  0.0000000  0.0000000  3
   2711   2710   2719   2720     1  0.0000000  0.6508444  3
   2711   2710   2719   2721     1  0.0000000  0.6508444  3
   2712   2710   2719   2728     1  0.0000000  1.0460000  1
   2712   2710   2719   2728     1  0.0000000  0.0000000  3
   2712   2710   2719   2720     1  0.0000000  0.6508444  3
   2712   2710   2719   2721     1  0.0000000  0.6508444  3
   2713   2701   2700   2729     1  0.0000000  0.6508444  3
   2714   2713   2725   4078     1  0.0000000  1.0460000  1
   2714   2713   2725   4078     1  0.0000000  0.0000000  3
   2714   2713   2725   2726     1  0.0000000  0.6508444  3
   2714   2713   2725   2727     1  0.0000000  0.6508444  3
   2715   2713   2725   4078     1  0.0000000  1.0460000  1
   2715   2713   2725   4078     1  0.0000000  0.0000000  3
   2715   2713   2725   2726     1  0.0000000  0.6508444  3
   2715   2713   2725   2727     1  0.0000000  0.6508444  3
   2716   2704   2700   2729     1  0.0000000  0.6508444  3
   2717   2716   2722   4064     1  0.0000000  1.0460000  1
   2717   2716   2722   4064     1  0.0000000  0.0000000  3
   2717   2716   2722   2723     1  0.0000000  0.6508444  3
   2717   2716   2722   2724     1  0.0000000  0.6508444  3
   2718   2716   2722   4064     1  0.0000000  1.0460000  1
   2718   2716   2722   4064     1  0.0000000  0.0000000  3
   2718   2716   2722   2723     1  0.0000000  0.6508444  3
   2718   2716   2722   2724     1  0.0000000  0.6508444  3
   2722   4064   4058   4059     1  0.0000000  1.6038667  3
   2722   4064   4058   4060     1  0.0000000  1.6038667  3
   2723   2722   4064   4058     1  0.0000000  1.6038667  3
   2724   2722   4064   4058     1  0.0000000  1.6038667  3
   2725   4078   4072   4073     1  0.0000000  1.6038667  3
   2725   4078   4072   4074     1  0.0000000  1.6038667  3
   2726   2725   4078   4072     1  0.0000000  1.6038667  3
   2727   2725   4078   4072     1  0.0000000  1.6038667  3
   2730   2731   2743   2744     1  0.0000000  0.6508444  3
   2730   2731   2743   2745     1  0.0000000  0.6508444  3
   2730   2734   2746   2747     1  0.0000000  0.6508444  3
   2730   2734   2746   2748     1  0.0000000  0.6508444  3
   2730   2737   2740   2741     1  0.0000000  0.6508444  3
   2730   2737   2740   2742     1  0.0000000  0.6508444  3
   2731   2730   2734   2735     1  0.0000000  0.6508444  3
   2731   2730   2734   2736     1  0.0000000  0.6508444  3
   2731   2730   2737   2738     1  0.0000000  0.6508444  3
   2731   2730   2737   2739     1  0.0000000  0.6508444  3
   2731   2743   2755   2756     1  0.0000000  0.6508444  3
   2731   2743   2755   2757     1  0.0000000  0.6508444  3
   2732   2731   2730   2734     1  0.0000000  0.6508444  3
   2732   2731   2730   2737     1  0.0000000  0.6508444  3
   2732   2731   2730   2759     1  0.0000000  0.6508444  3
   2732   2731   2743   2755     1  0.0000000  0.6508444  3
   2732   2731   2743   2744     1  0.0000000  0.6508444  3
   2732   2731   2743   2745     1  0.0000000  0.6508444  3
   2733   2731   2730   2734     1  0.0000000  0.6508444  3
   2733   2731   2730   2737     1  0.0000000  0.6508444  3
   2733   2731   2730   2759     1  0.0000000  0.6508444  3
   2733   2731   2743   2755     1  0.0000000  0.6508444  3
   2733   2731   2743   2744     1  0.0000000  0.6508444  3
   2733   2731   2743   2745     1  0.0000000  0.6508444  3
   2734   2730   2737   2738     1  0.0000000  0.6508444  3
   2734   2730   2737   2739     1  0.0000000  0.6508444  3
   2734   2746   2752   2753     1  0.0000000  0.6508444  3
   2734   2746   2752   2754     1  0.0000000  0.6508444  3
   2735   2734   2730   2737     1  0.0000000  0.6508444  3
   2735   2734   2730   2759     1  0.0000000  0.6508444  3
   2735   2734   2746   2752     1  0.0000000  0.6508444  3
   2735   2734   2746   2747     1  0.0000000  0.6508444  3
   2735   2734   2746   2748     1  0.0000000  0.6508444  3
   2736   2734   2730   2737     1  0.0000000  0.6508444  3
   2736   2734   2730   2759     1  0.0000000  0.6508444  3
   2736   2734   2746   2752     1  0.0000000  0.6508444  3
   2736   2734   2746   2747     1  0.0000000  0.6508444  3
   2736   2734   2746   2748     1  0.0000000  0.6508444  3
   2737   2740   2749   2750     1  0.0000000  0.6508444  3
   2737   2740   2749   2751     1  0.0000000  0.6508444  3
   2738   2737   2730   2759     1  0.0000000  0.6508444  3
   2738   2737   2740   2749     1  0.0000000  0.6508444  3
   2738   2737   2740   2741     1  0.0000000  0.6508444  3
   2738   2737   2740   2742     1  0.0000000  0.6508444  3
   2739   2737   2730   2759     1  0.0000000  0.6508444  3
   2739   2737   2740   2749     1  0.0000000  0.6508444  3
   2739   2737   2740   2741     1  0.0000000  0.6508444  3
   2739   2737   2740   2742     1  0.0000000  0.6508444  3
   2740   2737   2730   2759     1  0.0000000  0.6508444  3
   2741   2740   2749   2758     1  0.0000000  1.0460000  1
   2741   2740   2749   2758     1  0.0000000  0.0000000  3
   2741   2740   2749   2750     1  0.0000000  0.6508444  3
   2741   2740   2749   2751     1  0.0000000  0.6508444  3
   2742   2740   2749   2758     1  0.0000000  1.0460000  1
   2742   2740   2749   2758     1  0.0000000  0.0000000  3
   2742   2740   2749   2750     1  0.0000000  0.6508444  3
   2742   2740   2749   2751     1  0.0000000  0.6508444  3
   2743   2731   2730   2759     1  0.0000000  0.6508444  3
   2744   2743   2755   4106     1  0.0000000  1.0460000  1
   2744   2743   2755   4106     1  0.0000000  0.0000000  3
   2744   2743   2755   2756     1  0.0000000  0.6508444  3
   2744   2743   2755   2757     1  0.0000000  0.6508444  3
   2745   2743   2755   4106     1  0.0000000  1.0460000  1
   2745   2743   2755   4106     1  0.0000000  0.0000000  3
   2745   2743   2755   2756     1  0.0000000  0.6508444  3
   2745   2743   2755   2757     1  0.0000000  0.6508444  3
   2746   2734   2730   2759     1  0.0000000  0.6508444  3
   2747   2746   2752   4092     1  0.0000000  1.0460000  1
   2747   2746   2752   4092     1  0.0000000  0.0000000  3
   2747   2746   2752   2753     1  0.0000000  0.6508444  3
   2747   2746   2752   2754     1  0.0000000  0.6508444  3
   2748   2746   2752   4092     1  0.0000000  1.0460000  1
   2748   2746   2752   4092     1  0.0000000  0.0000000  3
   2748   2746   2752   2753     1  0.0000000  0.6508444  3
   2748   2746   2752   2754     1  0.0000000  0.6508444  3
   2752   4092   4086   4087     1  0.0000000  1.6038667  3
   2752   4092   4086   4088     1  0.0000000  1.6038667  3
   2753   2752   4092   4086     1  0.0000000  1.6038667  3
   2754   2752   4092   4086     1  0.0000000  1.6038667  3
   2755   4106   4100   4101     1  0.0000000  1.6038667  3
   2755   4106   4100   4102     1  0.0000000  1.6038667  3
   2756   2755   4106   4100     1  0.0000000  1.6038667  3
   2757   2755   4106   4100     1  0.0000000  1.6038667  3
   2760   2761   2773   2774     1  0.0000000  0.6508444  3
   2760   2761   2773   2775     1  0.0000000  0.6508444  3
   2760   2764   2776   2777     1  0.0000000  0.6508444  3
   2760   2764   2776   2778     1  0.0000000  0.6508444  3
   2760   2767   2770   2771     1  0.0000000  0.6508444  3
   2760   2767   2770   2772     1  0.0000000  0.6508444  3
   2761   2760   2764   2765     1  0.0000000  0.6508444  3
   2761   2760   2764   2766     1  0.0000000  0.6508444  3
   2761   2760   2767   2768     1  0.0000000  0.6508444  3
   2761   2760   2767   2769     1  0.0000000  0.6508444  3
   2761   2773   2785   2786     1  0.0000000  0.6508444  3
   2761   2773   2785   2787     1  0.0000000  0.6508444  3
   2762   2761   2760   2764     1  0.0000000  0.6508444  3
   2762   2761   2760   2767     1  0.0000000  0.6508444  3
   2762   2761   2760   2789     1  0.0000000  0.6508444  3
   2762   2761   2773   2785     1  0.0000000  0.6508444  3
   2762   2761   2773   2774     1  0.0000000  0.6508444  3
   2762   2761   2773   2775     1  0.0000000  0.6508444  3
   2763   2761   2760   2764     1  0.0000000  0.6508444  3
   2763   2761   2760   2767     1  0.0000000  0.6508444  3
   2763   2761   2760   2789     1  0.0000000  0.6508444  3
   2763   2761   2773   2785     1  0.0000000  0.6508444  3
   2763   2761   2773   2774     1  0.0000000  0.6508444  3
   2763   2761   2773   2775     1  0.0000000  0.6508444  3
   2764   2760   2767   2768     1  0.0000000  0.6508444  3
   2764   2760   2767   2769     1  0.0000000  0.6508444  3
   2764   2776   2782   2783     1  0.0000000  0.6508444  3
   2764   2776   2782   2784     1  0.0000000  0.6508444  3
   2765   2764   2760   2767     1  0.0000000  0.6508444  3
   2765   2764   2760   2789     1  0.0000000  0.6508444  3
   2765   2764   2776   2782     1  0.0000000  0.6508444  3
   2765   2764   2776   2777     1  0.0000000  0.6508444  3
   2765   2764   2776   2778     1  0.0000000  0.6508444  3
   2766   2764   2760   2767     1  0.0000000  0.6508444  3
   2766   2764   2760   2789     1  0.0000000  0.6508444  3
   2766   2764   2776   2782     1  0.0000000  0.6508444  3
   2766   2764   2776   2777     1  0.0000000  0.6508444  3
   2766   2764   2776   2778     1  0.0000000  0.6508444  3
   2767   2770   2779   2780     1  0.0000000  0.6508444  3
   2767   2770   2779   2781     1  0.0000000  0.6508444  3
   2768   2767   2760   2789     1  0.0000000  0.6508444  3
   2768   2767   2770   2779     1  0.0000000  0.6508444  3
   2768   2767   2770   2771     1  0.0000000  0.6508444  3
   2768   2767   2770   2772     1  0.0000000  0.6508444  3
   2769   2767   2760   2789     1  0.0000000  0.6508444  3
   2769   2767   2770   2779     1  0.0000000  0.6508444  3
   2769   2767   2770   2771     1  0.0000000  0.6508444  3
   2769   2767   2770   2772     1  0.0000000  0.6508444  3
   2770   2767   2760   2789     1  0.0000000  0.6508444  3
   2771   2770   2779   2788     1  0.0000000  1.0460000  1
   2771   2770   2779   2788     1  0.0000000  0.0000000  3
   2771   2770   2779   2780     1  0.0000000  0.6508444  3
   2771   2770   2779   2781     1  0.0000000  0.6508444  3
   2772   2770   2779   2788     1  0.0000000  1.0460000  1
   2772   2770   2779   2788     1  0.0000000  0.0000000  3
   2772   2770   2779   2780     1  0.0000000  0.6508444  3
   2772   2770   2779   2781     1  0.0000000  0.6508444  3
   2773   2761   2760   2789     1  0.0000000  0.6508444  3
   2774   2773   2785   4134     1  0.0000000  1.0460000  1
   2774   2773   2785   4134     1  0.0000000  0.0000000  3
   2774   2773   2785   2786     1  0.0000000  0.6508444  3
   2774   2773   2785   2787     1  0.0000000  0.6508444  3
   2775   2773   2785   4134     1  0.0000000  1.0460000  1
   2775   2773   2785   4134     1  0.0000000  0.0000000  3
   2775   2773   2785   2786     1  0.0000000  0.6508444  3
   2775   2773   2785   2787     1  0.0000000  0.6508444  3
   2776   2764   2760   2789     1  0.0000000  0.6508444  3
   2777   2776   2782   4120     1  0.0000000  1.0460000  1
   2777   2776   2782   4120     1  0.0000000  0.0000000  3
   2777   2776   2782   2783     1  0.0000000  0.6508444  3
   2777   2776   2782   2784     1  0.0000000  0.6508444  3
   2778   2776   2782   4120     1  0.0000000  1.0460000  1
   2778   2776   2782   4120     1  0.0000000  0.0000000  3
   2778   2776   2782   2783     1  0.0000000  0.6508444  3
   2778   2776   2782   2784     1  0.0000000  0.6508444  3
   2782   4120   4114   4115     1  0.0000000  1.6038667  3
   2782   4120   4114   4116     1  0.0000000  1.6038667  3
   2783   2782   4120   4114     1  0.0000000  1.6038667  3
   2784   2782   4120   4114     1  0.0000000  1.6038667  3
   2785   4134   4128   4129     1  0.0000000  1.6038667  3
   2785   4134   4128   4130     1  0.0000000  1.6038667  3
   2786   2785   4134   4128     1  0.0000000  1.6038667  3
   2787   2785   4134   4128     1  0.0000000  1.6038667  3
   2790   2791   2803   2804     1  0.0000000  0.6508444  3
   2790   2791   2803   2805     1  0.0000000  0.6508444  3
   2790   2794   2806   2807     1  0.0000000  0.6508444  3
   2790   2794   2806   2808     1  0.0000000  0.6508444  3
   2790   2797   2800   2801     1  0.0000000  0.6508444  3
   2790   2797   2800   2802     1  0.0000000  0.6508444  3
   2791   2790   2794   2795     1  0.0000000  0.6508444  3
   2791   2790   2794   2796     1  0.0000000  0.6508444  3
   2791   2790   2797   2798     1  0.0000000  0.6508444  3
   2791   2790   2797   2799     1  0.0000000  0.6508444  3
   2791   2803   2815   2816     1  0.0000000  0.6508444  3
   2791   2803   2815   2817     1  0.0000000  0.6508444  3
   2792   2791   2790   2794     1  0.0000000  0.6508444  3
   2792   2791   2790   2797     1  0.0000000  0.6508444  3
   2792   2791   2790   2819     1  0.0000000  0.6508444  3
   2792   2791   2803   2815     1  0.0000000  0.6508444  3
   2792   2791   2803   2804     1  0.0000000  0.6508444  3
   2792   2791   2803   2805     1  0.0000000  0.6508444  3
   2793   2791   2790   2794     1  0.0000000  0.6508444  3
   2793   2791   2790   2797     1  0.0000000  0.6508444  3
   2793   2791   2790   2819     1  0.0000000  0.6508444  3
   2793   2791   2803   2815     1  0.0000000  0.6508444  3
   2793   2791   2803   2804     1  0.0000000  0.6508444  3
   2793   2791   2803   2805     1  0.0000000  0.6508444  3
   2794   2790   2797   2798     1  0.0000000  0.6508444  3
   2794   2790   2797   2799     1  0.0000000  0.6508444  3
   2794   2806   2812   2813     1  0.0000000  0.6508444  3
   2794   2806   2812   2814     1  0.0000000  0.6508444  3
   2795   2794   2790   2797     1  0.0000000  0.6508444  3
   2795   2794   2790   2819     1  0.0000000  0.6508444  3
   2795   2794   2806   2812     1  0.0000000  0.6508444  3
   2795   2794   2806   2807     1  0.0000000  0.6508444  3
   2795   2794   2806   2808     1  0.0000000  0.6508444  3
   2796   2794   2790   2797     1  0.0000000  0.6508444  3
   2796   2794   2790   2819     1  0.0000000  0.6508444  3
   2796   2794   2806   2812     1  0.0000000  0.6508444  3
   2796   2794   2806   2807     1  0.0000000  0.6508444  3
   2796   2794   2806   2808     1  0.0000000  0.6508444  3
   2797   2800   2809   2810     1  0.0000000  0.6508444  3
   2797   2800   2809   2811     1  0.0000000  0.6508444  3
   2798   2797   2790   2819     1  0.0000000  0.6508444  3
   2798   2797   2800   2809     1  0.0000000  0.6508444  3
   2798   2797   2800   2801     1  0.0000000  0.6508444  3
   2798   2797   2800   2802     1  0.0000000  0.6508444  3
   2799   2797   2790   2819     1  0.0000000  0.6508444  3
   2799   2797   2800   2809     1  0.0000000  0.6508444  3
   2799   2797   2800   2801     1  0.0000000  0.6508444  3
   2799   2797   2800   2802     1  0.0000000  0.6508444  3
   2800   2797   2790   2819     1  0.0000000  0.6508444  3
   2801   2800   2809   2818     1  0.0000000  1.0460000  1
   2801   2800   2809   2818     1  0.0000000  0.0000000  3
   2801   2800   2809   2810     1  0.0000000  0.6508444  3
   2801   2800   2809   2811     1  0.0000000  0.6508444  3
   2802   2800   2809   2818     1  0.0000000  1.0460000  1
   2802   2800   2809   2818     1  0.0000000  0.0000000  3
   2802   2800   2809   2810     1  0.0000000  0.6508444  3
   2802   2800   2809   2811     1  0.0000000  0.6508444  3
   2803   2791   2790   2819     1  0.0000000  0.6508444  3
   2804   2803   2815   4162     1  0.0000000  1.0460000  1
   2804   2803   2815   4162     1  0.0000000  0.0000000  3
   2804   2803   2815   2816     1  0.0000000  0.6508444  3
   2804   2803   2815   2817     1  0.0000000  0.6508444  3
   2805   2803   2815   4162     1  0.0000000  1.0460000  1
   2805   2803   2815   4162     1  0.0000000  0.0000000  3
   2805   2803   2815   2816     1  0.0000000  0.6508444  3
   2805   2803   2815   2817     1  0.0000000  0.6508444  3
   2806   2794   2790   2819     1  0.0000000  0.6508444  3
   2807   2806   2812   4148     1  0.0000000  1.0460000  1
   2807   2806   2812   4148     1  0.0000000  0.0000000  3
   2807   2806   2812   2813     1  0.0000000  0.6508444  3
   2807   2806   2812   2814     1  0.0000000  0.6508444  3
   2808   2806   2812   4148     1  0.0000000  1.0460000  1
   2808   2806   2812   4148     1  0.0000000  0.0000000  3
   2808   2806   2812   2813     1  0.0000000  0.6508444  3
   2808   2806   2812   2814     1  0.0000000  0.6508444  3
   2812   4148   4142   4143     1  0.0000000  1.6038667  3
   2812   4148   4142   4144     1  0.0000000  1.6038667  3
   2813   2812   4148   4142     1  0.0000000  1.6038667  3
   2814   2812   4148   4142     1  0.0000000  1.6038667  3
   2815   4162   4156   4157     1  0.0000000  1.6038667  3
   2815   4162   4156   4158     1  0.0000000  1.6038667  3
   2816   2815   4162   4156     1  0.0000000  1.6038667  3
   2817   2815   4162   4156     1  0.0000000  1.6038667  3
   2820   2823   2826   2827     1  0.0000000  0.6508444  3
   2820   2823   2826   2828     1  0.0000000  0.6508444  3
   2821   2820   2823   2826     1  0.0000000  0.6508444  3
   2821   2820   2823   2824     1  0.0000000  0.6508444  3
   2821   2820   2823   2825     1  0.0000000  0.6508444  3
   2821   2820   2829   2830     1  0.0000000  0.6508444  3
   2821   2820   2829   2831     1  0.0000000  0.6508444  3
   2821   2820   2829   2833     1  0.0000000  0.6508444  3
   2822   2820   2823   2826     1  0.0000000  0.6508444  3
   2822   2820   2823   2824     1  0.0000000  0.6508444  3
   2822   2820   2823   2825     1  0.0000000  0.6508444  3
   2822   2820   2829   2830     1  0.0000000  0.6508444  3
   2822   2820   2829   2831     1  0.0000000  0.6508444  3
   2822   2820   2829   2833     1  0.0000000  0.6508444  3
   2823   2820   2829   2830     1  0.0000000  0.6508444  3
   2823   2820   2829   2831     1  0.0000000  0.6508444  3
   2823   2820   2829   2833     1  0.0000000  0.6508444  3
   2824   2823   2820   2829     1  0.0000000  0.6508444  3
   2824   2823   2826   2832     1  0.0000000  1.0460000  1
   2824   2823   2826   2832     1  0.0000000  0.0000000  3
   2824   2823   2826   2827     1  0.0000000  0.6508444  3
   2824   2823   2826   2828     1  0.0000000  0.6508444  3
   2825   2823   2820   2829     1  0.0000000  0.6508444  3
   2825   2823   2826   2832     1  0.0000000  1.0460000  1
   2825   2823   2826   2832     1  0.0000000  0.0000000  3
   2825   2823   2826   2827     1  0.0000000  0.6508444  3
   2825   2823   2826   2828     1  0.0000000  0.6508444  3
   2834   2837   2840   2841     1  0.0000000  0.6508444  3
   2834   2837   2840   2842     1  0.0000000  0.6508444  3
   2835   2834   2837   2840     1  0.0000000  0.6508444  3
   2835   2834   2837   2838     1  0.0000000  0.6508444  3
   2835   2834   2837   2839     1  0.0000000  0.6508444  3
   2835   2834   2843   2844     1  0.0000000  0.6508444  3
   2835   2834   2843   2845     1  0.0000000  0.6508444  3
   2835   2834   2843   2847     1  0.0000000  0.6508444  3
   2836   2834   2837   2840     1  0.0000000  0.6508444  3
   2836   2834   2837   2838     1  0.0000000  0.6508444  3
   2836   2834   2837   2839     1  0.0000000  0.6508444  3
   2836   2834   2843   2844     1  0.0000000  0.6508444  3
   2836   2834   2843   2845     1  0.0000000  0.6508444  3
   2836   2834   2843   2847     1  0.0000000  0.6508444  3
   2837   2834   2843   2844     1  0.0000000  0.6508444  3
   2837   2834   2843   2845     1  0.0000000  0.6508444  3
   2837   2834   2843   2847     1  0.0000000  0.6508444  3
   2838   2837   2840   2846     1  0.0000000  1.0460000  1
   2838   2837   2840   2846     1  0.0000000  0.0000000  3
   2838   2837   2840   2841     1  0.0000000  0.6508444  3
   2838   2837   2840   2842     1  0.0000000  0.6508444  3
   2838   2837   2834   2843     1  0.0000000  0.6508444  3
   2839   2837   2840   2846     1  0.0000000  1.0460000  1
   2839   2837   2840   2846     1  0.0000000  0.0000000  3
   2839   2837   2840   2841     1  0.0000000  0.6508444  3
   2839   2837   2840   2842     1  0.0000000  0.6508444  3
   2839   2837   2834   2843     1  0.0000000  0.6508444  3
   2848   2851   2854   2855     1  0.0000000  0.6508444  3
   2848   2851   2854   2856     1  0.0000000  0.6508444  3
   2849   2848   2851   2854     1  0.0000000  0.6508444  3
   2849   2848   2851   2852     1  0.0000000  0.6508444  3
   2849   2848   2851   2853     1  0.0000000  0.6508444  3
   2849   2848   2857   2858     1  0.0000000  0.6508444  3
   2849   2848   2857   2859     1  0.0000000  0.6508444  3
   2849   2848   2857   2861     1  0.0000000  0.6508444  3
   2850   2848   2851   2854     1  0.0000000  0.6508444  3
   2850   2848   2851   2852     1  0.0000000  0.6508444  3
   2850   2848   2851   2853     1  0.0000000  0.6508444  3
   2850   2848   2857   2858     1  0.0000000  0.6508444  3
   2850   2848   2857   2859     1  0.0000000  0.6508444  3
   2850   2848   2857   2861     1  0.0000000  0.6508444  3
   2851   2848   2857   2858     1  0.0000000  0.6508444  3
   2851   2848   2857   2859     1  0.0000000  0.6508444  3
   2851   2848   2857   2861     1  0.0000000  0.6508444  3
   2852   2851   2848   2857     1  0.0000000  0.6508444  3
   2852   2851   2854   2860     1  0.0000000  1.0460000  1
   2852   2851   2854   2860     1  0.0000000  0.0000000  3
   2852   2851   2854   2855     1  0.0000000  0.6508444  3
   2852   2851   2854   2856     1  0.0000000  0.6508444  3
   2853   2851   2848   2857     1  0.0000000  0.6508444  3
   2853   2851   2854   2860     1  0.0000000  1.0460000  1
   2853   2851   2854   2860     1  0.0000000  0.0000000  3
   2853   2851   2854   2855     1  0.0000000  0.6508444  3
   2853   2851   2854   2856     1  0.0000000  0.6508444  3
   2862   2865   2868   2869     1  0.0000000  0.6508444  3
   2862   2865   2868   2870     1  0.0000000  0.6508444  3
   2863   2862   2865   2868     1  0.0000000  0.6508444  3
   2863   2862   2865   2866     1  0.0000000  0.6508444  3
   2863   2862   2865   2867     1  0.0000000  0.6508444  3
   2863   2862   2871   2872     1  0.0000000  0.6508444  3
   2863   2862   2871   2873     1  0.0000000  0.6508444  3
   2863   2862   2871   2875     1  0.0000000  0.6508444  3
   2864   2862   2865   2868     1  0.0000000  0.6508444  3
   2864   2862   2865   2866     1  0.0000000  0.6508444  3
   2864   2862   2865   2867     1  0.0000000  0.6508444  3
   2864   2862   2871   2872     1  0.0000000  0.6508444  3
   2864   2862   2871   2873     1  0.0000000  0.6508444  3
   2864   2862   2871   2875     1  0.0000000  0.6508444  3
   2865   2862   2871   2872     1  0.0000000  0.6508444  3
   2865   2862   2871   2873     1  0.0000000  0.6508444  3
   2865   2862   2871   2875     1  0.0000000  0.6508444  3
   2866   2865   2868   2874     1  0.0000000  1.0460000  1
   2866   2865   2868   2874     1  0.0000000  0.0000000  3
   2866   2865   2868   2869     1  0.0000000  0.6508444  3
   2866   2865   2868   2870     1  0.0000000  0.6508444  3
   2866   2865   2862   2871     1  0.0000000  0.6508444  3
   2867   2865   2868   2874     1  0.0000000  1.0460000  1
   2867   2865   2868   2874     1  0.0000000  0.0000000  3
   2867   2865   2868   2869     1  0.0000000  0.6508444  3
   2867   2865   2868   2870     1  0.0000000  0.6508444  3
   2867   2865   2862   2871     1  0.0000000  0.6508444  3
   2876   2879   2882   2883     1  0.0000000  0.6508444  3
   2876   2879   2882   2884     1  0.0000000  0.6508444  3
   2877   2876   2879   2882     1  0.0000000  0.6508444  3
   2877   2876   2879   2880     1  0.0000000  0.6508444  3
   2877   2876   2879   2881     1  0.0000000  0.6508444  3
   2877   2876   2885   2886     1  0.0000000  0.6508444  3
   2877   2876   2885   2887     1  0.0000000  0.6508444  3
   2877   2876   2885   2889     1  0.0000000  0.6508444  3
   2878   2876   2879   2882     1  0.0000000  0.6508444  3
   2878   2876   2879   2880     1  0.0000000  0.6508444  3
   2878   2876   2879   2881     1  0.0000000  0.6508444  3
   2878   2876   2885   2886     1  0.0000000  0.6508444  3
   2878   2876   2885   2887     1  0.0000000  0.6508444  3
   2878   2876   2885   2889     1  0.0000000  0.6508444  3
   2879   2876   2885   2886     1  0.0000000  0.6508444  3
   2879   2876   2885   2887     1  0.0000000  0.6508444  3
   2879   2876   2885   2889     1  0.0000000  0.6508444  3
   2880   2879   2876   2885     1  0.0000000  0.6508444  3
   2880   2879   2882   2888     1  0.0000000  1.0460000  1
   2880   2879   2882   2888     1  0.0000000  0.0000000  3
   2880   2879   2882   2883     1  0.0000000  0.6508444  3
   2880   2879   2882   2884     1  0.0000000  0.6508444  3
   2881   2879   2876   2885     1  0.0000000  0.6508444  3
   2881   2879   2882   2888     1  0.0000000  1.0460000  1
   2881   2879   2882   2888     1  0.0000000  0.0000000  3
   2881   2879   2882   2883     1  0.0000000  0.6508444  3
   2881   2879   2882   2884     1  0.0000000  0.6508444  3
   2890   2893   2896   2897     1  0.0000000  0.6508444  3
   2890   2893   2896   2898     1  0.0000000  0.6508444  3
   2891   2890   2893   2896     1  0.0000000  0.6508444  3
   2891   2890   2893   2894     1  0.0000000  0.6508444  3
   2891   2890   2893   2895     1  0.0000000  0.6508444  3
   2891   2890   2899   2900     1  0.0000000  0.6508444  3
   2891   2890   2899   2901     1  0.0000000  0.6508444  3
   2891   2890   2899   2903     1  0.0000000  0.6508444  3
   2892   2890   2893   2896     1  0.0000000  0.6508444  3
   2892   2890   2893   2894     1  0.0000000  0.6508444  3
   2892   2890   2893   2895     1  0.0000000  0.6508444  3
   2892   2890   2899   2900     1  0.0000000  0.6508444  3
   2892   2890   2899   2901     1  0.0000000  0.6508444  3
   2892   2890   2899   2903     1  0.0000000  0.6508444  3
   2893   2890   2899   2900     1  0.0000000  0.6508444  3
   2893   2890   2899   2901     1  0.0000000  0.6508444  3
   2893   2890   2899   2903     1  0.0000000  0.6508444  3
   2894   2893   2896   2902     1  0.0000000  1.0460000  1
   2894   2893   2896   2902     1  0.0000000  0.0000000  3
   2894   2893   2896   2897     1  0.0000000  0.6508444  3
   2894   2893   2896   2898     1  0.0000000  0.6508444  3
   2894   2893   2890   2899     1  0.0000000  0.6508444  3
   2895   2893   2896   2902     1  0.0000000  1.0460000  1
   2895   2893   2896   2902     1  0.0000000  0.0000000  3
   2895   2893   2896   2897     1  0.0000000  0.6508444  3
   2895   2893   2896   2898     1  0.0000000  0.6508444  3
   2895   2893   2890   2899     1  0.0000000  0.6508444  3
   2904   2907   2910   2911     1  0.0000000  0.6508444  3
   2904   2907   2910   2912     1  0.0000000  0.6508444  3
   2905   2904   2907   2910     1  0.0000000  0.6508444  3
   2905   2904   2907   2908     1  0.0000000  0.6508444  3
   2905   2904   2907   2909     1  0.0000000  0.6508444  3
   2905   2904   2913   2914     1  0.0000000  0.6508444  3
   2905   2904   2913   2915     1  0.0000000  0.6508444  3
   2905   2904   2913   2917     1  0.0000000  0.6508444  3
   2906   2904   2907   2910     1  0.0000000  0.6508444  3
   2906   2904   2907   2908     1  0.0000000  0.6508444  3
   2906   2904   2907   2909     1  0.0000000  0.6508444  3
   2906   2904   2913   2914     1  0.0000000  0.6508444  3
   2906   2904   2913   2915     1  0.0000000  0.6508444  3
   2906   2904   2913   2917     1  0.0000000  0.6508444  3
   2907   2904   2913   2914     1  0.0000000  0.6508444  3
   2907   2904   2913   2915     1  0.0000000  0.6508444  3
   2907   2904   2913   2917     1  0.0000000  0.6508444  3
   2908   2907   2904   2913     1  0.0000000  0.6508444  3
   2908   2907   2910   2916     1  0.0000000  1.0460000  1
   2908   2907   2910   2916     1  0.0000000  0.0000000  3
   2908   2907   2910   2911     1  0.0000000  0.6508444  3
   2908   2907   2910   2912     1  0.0000000  0.6508444  3
   2909   2907   2904   2913     1  0.0000000  0.6508444  3
   2909   2907   2910   2916     1  0.0000000  1.0460000  1
   2909   2907   2910   2916     1  0.0000000  0.0000000  3
   2909   2907   2910   2911     1  0.0000000  0.6508444  3
   2909   2907   2910   2912     1  0.0000000  0.6508444  3
   2918   2921   2924   2925     1  0.0000000  0.6508444  3
   2918   2921   2924   2926     1  0.0000000  0.6508444  3
   2919   2918   2921   2924     1  0.0000000  0.6508444  3
   2919   2918   2921   2922     1  0.0000000  0.6508444  3
   2919   2918   2921   2923     1  0.0000000  0.6508444  3
   2919   2918   2927   2928     1  0.0000000  0.6508444  3
   2919   2918   2927   2929     1  0.0000000  0.6508444  3
   2919   2918   2927   2931     1  0.0000000  0.6508444  3
   2920   2918   2921   2924     1  0.0000000  0.6508444  3
   2920   2918   2921   2922     1  0.0000000  0.6508444  3
   2920   2918   2921   2923     1  0.0000000  0.6508444  3
   2920   2918   2927   2928     1  0.0000000  0.6508444  3
   2920   2918   2927   2929     1  0.0000000  0.6508444  3
   2920   2918   2927   2931     1  0.0000000  0.6508444  3
   2921   2918   2927   2928     1  0.0000000  0.6508444  3
   2921   2918   2927   2929     1  0.0000000  0.6508444  3
   2921   2918   2927   2931     1  0.0000000  0.6508444  3
   2922   2921   2924   2930     1  0.0000000  1.0460000  1
   2922   2921   2924   2930     1  0.0000000  0.0000000  3
   2922   2921   2924   2925     1  0.0000000  0.6508444  3
   2922   2921   2924   2926     1  0.0000000  0.6508444  3
   2922   2921   2918   2927     1  0.0000000  0.6508444  3
   2923   2921   2924   2930     1  0.0000000  1.0460000  1
   2923   2921   2924   2930     1  0.0000000  0.0000000  3
   2923   2921   2924   2925     1  0.0000000  0.6508444  3
   2923   2921   2924   2926     1  0.0000000  0.6508444  3
   2923   2921   2918   2927     1  0.0000000  0.6508444  3
   2932   2935   2938   2939     1  0.0000000  0.6508444  3
   2932   2935   2938   2940     1  0.0000000  0.6508444  3
   2933   2932   2935   2938     1  0.0000000  0.6508444  3
   2933   2932   2935   2936     1  0.0000000  0.6508444  3
   2933   2932   2935   2937     1  0.0000000  0.6508444  3
   2933   2932   2941   2942     1  0.0000000  0.6508444  3
   2933   2932   2941   2943     1  0.0000000  0.6508444  3
   2933   2932   2941   2945     1  0.0000000  0.6508444  3
   2934   2932   2935   2938     1  0.0000000  0.6508444  3
   2934   2932   2935   2936     1  0.0000000  0.6508444  3
   2934   2932   2935   2937     1  0.0000000  0.6508444  3
   2934   2932   2941   2942     1  0.0000000  0.6508444  3
   2934   2932   2941   2943     1  0.0000000  0.6508444  3
   2934   2932   2941   2945     1  0.0000000  0.6508444  3
   2935   2932   2941   2942     1  0.0000000  0.6508444  3
   2935   2932   2941   2943     1  0.0000000  0.6508444  3
   2935   2932   2941   2945     1  0.0000000  0.6508444  3
   2936   2935   2932   2941     1  0.0000000  0.6508444  3
   2936   2935   2938   2944     1  0.0000000  1.0460000  1
   2936   2935   2938   2944     1  0.0000000  0.0000000  3
   2936   2935   2938   2939     1  0.0000000  0.6508444  3
   2936   2935   2938   2940     1  0.0000000  0.6508444  3
   2937   2935   2932   2941     1  0.0000000  0.6508444  3
   2937   2935   2938   2944     1  0.0000000  1.0460000  1
   2937   2935   2938   2944     1  0.0000000  0.0000000  3
   2937   2935   2938   2939     1  0.0000000  0.6508444  3
   2937   2935   2938   2940     1  0.0000000  0.6508444  3
   2946   2949   2952   2953     1  0.0000000  0.6508444  3
   2946   2949   2952   2954     1  0.0000000  0.6508444  3
   2947   2946   2949   2952     1  0.0000000  0.6508444  3
   2947   2946   2949   2950     1  0.0000000  0.6508444  3
   2947   2946   2949   2951     1  0.0000000  0.6508444  3
   2947   2946   2955   2956     1  0.0000000  0.6508444  3
   2947   2946   2955   2957     1  0.0000000  0.6508444  3
   2947   2946   2955   2959     1  0.0000000  0.6508444  3
   2948   2946   2949   2952     1  0.0000000  0.6508444  3
   2948   2946   2949   2950     1  0.0000000  0.6508444  3
   2948   2946   2949   2951     1  0.0000000  0.6508444  3
   2948   2946   2955   2956     1  0.0000000  0.6508444  3
   2948   2946   2955   2957     1  0.0000000  0.6508444  3
   2948   2946   2955   2959     1  0.0000000  0.6508444  3
   2949   2946   2955   2956     1  0.0000000  0.6508444  3
   2949   2946   2955   2957     1  0.0000000  0.6508444  3
   2949   2946   2955   2959     1  0.0000000  0.6508444  3
   2950   2949   2952   2958     1  0.0000000  1.0460000  1
   2950   2949   2952   2958     1  0.0000000  0.0000000  3
   2950   2949   2952   2953     1  0.0000000  0.6508444  3
   2950   2949   2952   2954     1  0.0000000  0.6508444  3
   2950   2949   2946   2955     1  0.0000000  0.6508444  3
   2951   2949   2952   2958     1  0.0000000  1.0460000  1
   2951   2949   2952   2958     1  0.0000000  0.0000000  3
   2951   2949   2952   2953     1  0.0000000  0.6508444  3
   2951   2949   2952   2954     1  0.0000000  0.6508444  3
   2951   2949   2946   2955     1  0.0000000  0.6508444  3
   2960   2963   2966   2967     1  0.0000000  0.6508444  3
   2960   2963   2966   2968     1  0.0000000  0.6508444  3
   2961   2960   2963   2966     1  0.0000000  0.6508444  3
   2961   2960   2963   2964     1  0.0000000  0.6508444  3
   2961   2960   2963   2965     1  0.0000000  0.6508444  3
   2961   2960   2969   2970     1  0.0000000  0.6508444  3
   2961   2960   2969   2971     1  0.0000000  0.6508444  3
   2961   2960   2969   2973     1  0.0000000  0.6508444  3
   2962   2960   2963   2966     1  0.0000000  0.6508444  3
   2962   2960   2963   2964     1  0.0000000  0.6508444  3
   2962   2960   2963   2965     1  0.0000000  0.6508444  3
   2962   2960   2969   2970     1  0.0000000  0.6508444  3
   2962   2960   2969   2971     1  0.0000000  0.6508444  3
   2962   2960   2969   2973     1  0.0000000  0.6508444  3
   2963   2960   2969   2970     1  0.0000000  0.6508444  3
   2963   2960   2969   2971     1  0.0000000  0.6508444  3
   2963   2960   2969   2973     1  0.0000000  0.6508444  3
   2964   2963   2960   2969     1  0.0000000  0.6508444  3
   2964   2963   2966   2972     1  0.0000000  1.0460000  1
   2964   2963   2966   2972     1  0.0000000  0.0000000  3
   2964   2963   2966   2967     1  0.0000000  0.6508444  3
   2964   2963   2966   2968     1  0.0000000  0.6508444  3
   2965   2963   2960   2969     1  0.0000000  0.6508444  3
   2965   2963   2966   2972     1  0.0000000  1.0460000  1
   2965   2963   2966   2972     1  0.0000000  0.0000000  3
   2965   2963   2966   2967     1  0.0000000  0.6508444  3
   2965   2963   2966   2968     1  0.0000000  0.6508444  3
   2974   2977   2980   2981     1  0.0000000  0.6508444  3
   2974   2977   2980   2982     1  0.0000000  0.6508444  3
   2975   2974   2977   2980     1  0.0000000  0.6508444  3
   2975   2974   2977   2978     1  0.0000000  0.6508444  3
   2975   2974   2977   2979     1  0.0000000  0.6508444  3
   2975   2974   2983   2984     1  0.0000000  0.6508444  3
   2975   2974   2983   2985     1  0.0000000  0.6508444  3
   2975   2974   2983   2987     1  0.0000000  0.6508444  3
   2976   2974   2977   2980     1  0.0000000  0.6508444  3
   2976   2974   2977   2978     1  0.0000000  0.6508444  3
   2976   2974   2977   2979     1  0.0000000  0.6508444  3
   2976   2974   2983   2984     1  0.0000000  0.6508444  3
   2976   2974   2983   2985     1  0.0000000  0.6508444  3
   2976   2974   2983   2987     1  0.0000000  0.6508444  3
   2977   2974   2983   2984     1  0.0000000  0.6508444  3
   2977   2974   2983   2985     1  0.0000000  0.6508444  3
   2977   2974   2983   2987     1  0.0000000  0.6508444  3
   2978   2977   2980   2986     1  0.0000000  1.0460000  1
   2978   2977   2980   2986     1  0.0000000  0.0000000  3
   2978   2977   2980   2981     1  0.0000000  0.6508444  3
   2978   2977   2980   2982     1  0.0000000  0.6508444  3
   2978   2977   2974   2983     1  0.0000000  0.6508444  3
   2979   2977   2980   2986     1  0.0000000  1.0460000  1
   2979   2977   2980   2986     1  0.0000000  0.0000000  3
   2979   2977   2980   2981     1  0.0000000  0.6508444  3
   2979   2977   2980   2982     1  0.0000000  0.6508444  3
   2979   2977   2974   2983     1  0.0000000  0.6508444  3
   2988   2991   2994   2995     1  0.0000000  0.6508444  3
   2988   2991   2994   2996     1  0.0000000  0.6508444  3
   2989   2988   2991   2994     1  0.0000000  0.6508444  3
   2989   2988   2991   2992     1  0.0000000  0.6508444  3
   2989   2988   2991   2993     1  0.0000000  0.6508444  3
   2989   2988   2997   2998     1  0.0000000  0.6508444  3
   2989   2988   2997   2999     1  0.0000000  0.6508444  3
   2989   2988   2997   3001     1  0.0000000  0.6508444  3
   2990   2988   2991   2994     1  0.0000000  0.6508444  3
   2990   2988   2991   2992     1  0.0000000  0.6508444  3
   2990   2988   2991   2993     1  0.0000000  0.6508444  3
   2990   2988   2997   2998     1  0.0000000  0.6508444  3
   2990   2988   2997   2999     1  0.0000000  0.6508444  3
   2990   2988   2997   3001     1  0.0000000  0.6508444  3
   2991   2988   2997   2998     1  0.0000000  0.6508444  3
   2991   2988   2997   2999     1  0.0000000  0.6508444  3
   2991   2988   2997   3001     1  0.0000000  0.6508444  3
   2992   2991   2988   2997     1  0.0000000  0.6508444  3
   2992   2991   2994   3000     1  0.0000000  1.0460000  1
   2992   2991   2994   3000     1  0.0000000  0.0000000  3
   2992   2991   2994   2995     1  0.0000000  0.6508444  3
   2992   2991   2994   2996     1  0.0000000  0.6508444  3
   2993   2991   2988   2997     1  0.0000000  0.6508444  3
   2993   2991   2994   3000     1  0.0000000  1.0460000  1
   2993   2991   2994   3000     1  0.0000000  0.0000000  3
   2993   2991   2994   2995     1  0.0000000  0.6508444  3
   2993   2991   2994   2996     1  0.0000000  0.6508444  3
   3002   3005   3008   3009     1  0.0000000  0.6508444  3
   3002   3005   3008   3010     1  0.0000000  0.6508444  3
   3003   3002   3005   3008     1  0.0000000  0.6508444  3
   3003   3002   3005   3006     1  0.0000000  0.6508444  3
   3003   3002   3005   3007     1  0.0000000  0.6508444  3
   3003   3002   3011   3012     1  0.0000000  0.6508444  3
   3003   3002   3011   3013     1  0.0000000  0.6508444  3
   3003   3002   3011   3015     1  0.0000000  0.6508444  3
   3004   3002   3005   3008     1  0.0000000  0.6508444  3
   3004   3002   3005   3006     1  0.0000000  0.6508444  3
   3004   3002   3005   3007     1  0.0000000  0.6508444  3
   3004   3002   3011   3012     1  0.0000000  0.6508444  3
   3004   3002   3011   3013     1  0.0000000  0.6508444  3
   3004   3002   3011   3015     1  0.0000000  0.6508444  3
   3005   3002   3011   3012     1  0.0000000  0.6508444  3
   3005   3002   3011   3013     1  0.0000000  0.6508444  3
   3005   3002   3011   3015     1  0.0000000  0.6508444  3
   3006   3005   3008   3014     1  0.0000000  1.0460000  1
   3006   3005   3008   3014     1  0.0000000  0.0000000  3
   3006   3005   3008   3009     1  0.0000000  0.6508444  3
   3006   3005   3008   3010     1  0.0000000  0.6508444  3
   3006   3005   3002   3011     1  0.0000000  0.6508444  3
   3007   3005   3008   3014     1  0.0000000  1.0460000  1
   3007   3005   3008   3014     1  0.0000000  0.0000000  3
   3007   3005   3008   3009     1  0.0000000  0.6508444  3
   3007   3005   3008   3010     1  0.0000000  0.6508444  3
   3007   3005   3002   3011     1  0.0000000  0.6508444  3
   3016   3019   3022   3023     1  0.0000000  0.6508444  3
   3016   3019   3022   3024     1  0.0000000  0.6508444  3
   3017   3016   3019   3022     1  0.0000000  0.6508444  3
   3017   3016   3019   3020     1  0.0000000  0.6508444  3
   3017   3016   3019   3021     1  0.0000000  0.6508444  3
   3017   3016   3025   3026     1  0.0000000  0.6508444  3
   3017   3016   3025   3027     1  0.0000000  0.6508444  3
   3017   3016   3025   3029     1  0.0000000  0.6508444  3
   3018   3016   3019   3022     1  0.0000000  0.6508444  3
   3018   3016   3019   3020     1  0.0000000  0.6508444  3
   3018   3016   3019   3021     1  0.0000000  0.6508444  3
   3018   3016   3025   3026     1  0.0000000  0.6508444  3
   3018   3016   3025   3027     1  0.0000000  0.6508444  3
   3018   3016   3025   3029     1  0.0000000  0.6508444  3
   3019   3016   3025   3026     1  0.0000000  0.6508444  3
   3019   3016   3025   3027     1  0.0000000  0.6508444  3
   3019   3016   3025   3029     1  0.0000000  0.6508444  3
   3020   3019   3016   3025     1  0.0000000  0.6508444  3
   3020   3019   3022   3028     1  0.0000000  1.0460000  1
   3020   3019   3022   3028     1  0.0000000  0.0000000  3
   3020   3019   3022   3023     1  0.0000000  0.6508444  3
   3020   3019   3022   3024     1  0.0000000  0.6508444  3
   3021   3019   3016   3025     1  0.0000000  0.6508444  3
   3021   3019   3022   3028     1  0.0000000  1.0460000  1
   3021   3019   3022   3028     1  0.0000000  0.0000000  3
   3021   3019   3022   3023     1  0.0000000  0.6508444  3
   3021   3019   3022   3024     1  0.0000000  0.6508444  3
   3030   3033   3036   3037     1  0.0000000  0.6508444  3
   3030   3033   3036   3038     1  0.0000000  0.6508444  3
   3031   3030   3033   3036     1  0.0000000  0.6508444  3
   3031   3030   3033   3034     1  0.0000000  0.6508444  3
   3031   3030   3033   3035     1  0.0000000  0.6508444  3
   3031   3030   3039   3040     1  0.0000000  0.6508444  3
   3031   3030   3039   3041     1  0.0000000  0.6508444  3
   3031   3030   3039   3043     1  0.0000000  0.6508444  3
   3032   3030   3033   3036     1  0.0000000  0.6508444  3
   3032   3030   3033   3034     1  0.0000000  0.6508444  3
   3032   3030   3033   3035     1  0.0000000  0.6508444  3
   3032   3030   3039   3040     1  0.0000000  0.6508444  3
   3032   3030   3039   3041     1  0.0000000  0.6508444  3
   3032   3030   3039   3043     1  0.0000000  0.6508444  3
   3033   3030   3039   3040     1  0.0000000  0.6508444  3
   3033   3030   3039   3041     1  0.0000000  0.6508444  3
   3033   3030   3039   3043     1  0.0000000  0.6508444  3
   3034   3033   3036   3042     1  0.0000000  1.0460000  1
   3034   3033   3036   3042     1  0.0000000  0.0000000  3
   3034   3033   3036   3037     1  0.0000000  0.6508444  3
   3034   3033   3036   3038     1  0.0000000  0.6508444  3
   3034   3033   3030   3039     1  0.0000000  0.6508444  3
   3035   3033   3036   3042     1  0.0000000  1.0460000  1
   3035   3033   3036   3042     1  0.0000000  0.0000000  3
   3035   3033   3036   3037     1  0.0000000  0.6508444  3
   3035   3033   3036   3038     1  0.0000000  0.6508444  3
   3035   3033   3030   3039     1  0.0000000  0.6508444  3
   3044   3047   3050   3051     1  0.0000000  0.6508444  3
   3044   3047   3050   3052     1  0.0000000  0.6508444  3
   3045   3044   3047   3050     1  0.0000000  0.6508444  3
   3045   3044   3047   3048     1  0.0000000  0.6508444  3
   3045   3044   3047   3049     1  0.0000000  0.6508444  3
   3045   3044   3053   3054     1  0.0000000  0.6508444  3
   3045   3044   3053   3055     1  0.0000000  0.6508444  3
   3045   3044   3053   3057     1  0.0000000  0.6508444  3
   3046   3044   3047   3050     1  0.0000000  0.6508444  3
   3046   3044   3047   3048     1  0.0000000  0.6508444  3
   3046   3044   3047   3049     1  0.0000000  0.6508444  3
   3046   3044   3053   3054     1  0.0000000  0.6508444  3
   3046   3044   3053   3055     1  0.0000000  0.6508444  3
   3046   3044   3053   3057     1  0.0000000  0.6508444  3
   3047   3044   3053   3054     1  0.0000000  0.6508444  3
   3047   3044   3053   3055     1  0.0000000  0.6508444  3
   3047   3044   3053   3057     1  0.0000000  0.6508444  3
   3048   3047   3044   3053     1  0.0000000  0.6508444  3
   3048   3047   3050   3056     1  0.0000000  1.0460000  1
   3048   3047   3050   3056     1  0.0000000  0.0000000  3
   3048   3047   3050   3051     1  0.0000000  0.6508444  3
   3048   3047   3050   3052     1  0.0000000  0.6508444  3
   3049   3047   3044   3053     1  0.0000000  0.6508444  3
   3049   3047   3050   3056     1  0.0000000  1.0460000  1
   3049   3047   3050   3056     1  0.0000000  0.0000000  3
   3049   3047   3050   3051     1  0.0000000  0.6508444  3
   3049   3047   3050   3052     1  0.0000000  0.6508444  3
   3058   3061   3064   3065     1  0.0000000  0.6508444  3
   3058   3061   3064   3066     1  0.0000000  0.6508444  3
   3059   3058   3061   3064     1  0.0000000  0.6508444  3
   3059   3058   3061   3062     1  0.0000000  0.6508444  3
   3059   3058   3061   3063     1  0.0000000  0.6508444  3
   3059   3058   3067   3068     1  0.0000000  0.6508444  3
   3059   3058   3067   3069     1  0.0000000  0.6508444  3
   3059   3058   3067   3071     1  0.0000000  0.6508444  3
   3060   3058   3061   3064     1  0.0000000  0.6508444  3
   3060   3058   3061   3062     1  0.0000000  0.6508444  3
   3060   3058   3061   3063     1  0.0000000  0.6508444  3
   3060   3058   3067   3068     1  0.0000000  0.6508444  3
   3060   3058   3067   3069     1  0.0000000  0.6508444  3
   3060   3058   3067   3071     1  0.0000000  0.6508444  3
   3061   3058   3067   3068     1  0.0000000  0.6508444  3
   3061   3058   3067   3069     1  0.0000000  0.6508444  3
   3061   3058   3067   3071     1  0.0000000  0.6508444  3
   3062   3061   3064   3070     1  0.0000000  1.0460000  1
   3062   3061   3064   3070     1  0.0000000  0.0000000  3
   3062   3061   3064   3065     1  0.0000000  0.6508444  3
   3062   3061   3064   3066     1  0.0000000  0.6508444  3
   3062   3061   3058   3067     1  0.0000000  0.6508444  3
   3063   3061   3064   3070     1  0.0000000  1.0460000  1
   3063   3061   3064   3070     1  0.0000000  0.0000000  3
   3063   3061   3064   3065     1  0.0000000  0.6508444  3
   3063   3061   3064   3066     1  0.0000000  0.6508444  3
   3063   3061   3058   3067     1  0.0000000  0.6508444  3
   3072   3075   3078   3079     1  0.0000000  0.6508444  3
   3072   3075   3078   3080     1  0.0000000  0.6508444  3
   3073   3072   3075   3078     1  0.0000000  0.6508444  3
   3073   3072   3075   3076     1  0.0000000  0.6508444  3
   3073   3072   3075   3077     1  0.0000000  0.6508444  3
   3073   3072   3081   3082     1  0.0000000  0.6508444  3
   3073   3072   3081   3083     1  0.0000000  0.6508444  3
   3073   3072   3081   3085     1  0.0000000  0.6508444  3
   3074   3072   3075   3078     1  0.0000000  0.6508444  3
   3074   3072   3075   3076     1  0.0000000  0.6508444  3
   3074   3072   3075   3077     1  0.0000000  0.6508444  3
   3074   3072   3081   3082     1  0.0000000  0.6508444  3
   3074   3072   3081   3083     1  0.0000000  0.6508444  3
   3074   3072   3081   3085     1  0.0000000  0.6508444  3
   3075   3072   3081   3082     1  0.0000000  0.6508444  3
   3075   3072   3081   3083     1  0.0000000  0.6508444  3
   3075   3072   3081   3085     1  0.0000000  0.6508444  3
   3076   3075   3072   3081     1  0.0000000  0.6508444  3
   3076   3075   3078   3084     1  0.0000000  1.0460000  1
   3076   3075   3078   3084     1  0.0000000  0.0000000  3
   3076   3075   3078   3079     1  0.0000000  0.6508444  3
   3076   3075   3078   3080     1  0.0000000  0.6508444  3
   3077   3075   3072   3081     1  0.0000000  0.6508444  3
   3077   3075   3078   3084     1  0.0000000  1.0460000  1
   3077   3075   3078   3084     1  0.0000000  0.0000000  3
   3077   3075   3078   3079     1  0.0000000  0.6508444  3
   3077   3075   3078   3080     1  0.0000000  0.6508444  3
   3086   3089   3092   3093     1  0.0000000  0.6508444  3
   3086   3089   3092   3094     1  0.0000000  0.6508444  3
   3087   3086   3089   3092     1  0.0000000  0.6508444  3
   3087   3086   3089   3090     1  0.0000000  0.6508444  3
   3087   3086   3089   3091     1  0.0000000  0.6508444  3
   3087   3086   3095   3096     1  0.0000000  0.6508444  3
   3087   3086   3095   3097     1  0.0000000  0.6508444  3
   3087   3086   3095   3099     1  0.0000000  0.6508444  3
   3088   3086   3089   3092     1  0.0000000  0.6508444  3
   3088   3086   3089   3090     1  0.0000000  0.6508444  3
   3088   3086   3089   3091     1  0.0000000  0.6508444  3
   3088   3086   3095   3096     1  0.0000000  0.6508444  3
   3088   3086   3095   3097     1  0.0000000  0.6508444  3
   3088   3086   3095   3099     1  0.0000000  0.6508444  3
   3089   3086   3095   3096     1  0.0000000  0.6508444  3
   3089   3086   3095   3097     1  0.0000000  0.6508444  3
   3089   3086   3095   3099     1  0.0000000  0.6508444  3
   3090   3089   3092   3098     1  0.0000000  1.0460000  1
   3090   3089   3092   3098     1  0.0000000  0.0000000  3
   3090   3089   3092   3093     1  0.0000000  0.6508444  3
   3090   3089   3092   3094     1  0.0000000  0.6508444  3
   3090   3089   3086   3095     1  0.0000000  0.6508444  3
   3091   3089   3092   3098     1  0.0000000  1.0460000  1
   3091   3089   3092   3098     1  0.0000000  0.0000000  3
   3091   3089   3092   3093     1  0.0000000  0.6508444  3
   3091   3089   3092   3094     1  0.0000000  0.6508444  3
   3091   3089   3086   3095     1  0.0000000  0.6508444  3
   3100   3103   3106   3107     1  0.0000000  0.6508444  3
   3100   3103   3106   3108     1  0.0000000  0.6508444  3
   3101   3100   3103   3106     1  0.0000000  0.6508444  3
   3101   3100   3103   3104     1  0.0000000  0.6508444  3
   3101   3100   3103   3105     1  0.0000000  0.6508444  3
   3101   3100   3109   3110     1  0.0000000  0.6508444  3
   3101   3100   3109   3111     1  0.0000000  0.6508444  3
   3101   3100   3109   3113     1  0.0000000  0.6508444  3
   3102   3100   3103   3106     1  0.0000000  0.6508444  3
   3102   3100   3103   3104     1  0.0000000  0.6508444  3
   3102   3100   3103   3105     1  0.0000000  0.6508444  3
   3102   3100   3109   3110     1  0.0000000  0.6508444  3
   3102   3100   3109   3111     1  0.0000000  0.6508444  3
   3102   3100   3109   3113     1  0.0000000  0.6508444  3
   3103   3100   3109   3110     1  0.0000000  0.6508444  3
   3103   3100   3109   3111     1  0.0000000  0.6508444  3
   3103   3100   3109   3113     1  0.0000000  0.6508444  3
   3104   3103   3100   3109     1  0.0000000  0.6508444  3
   3104   3103   3106   3112     1  0.0000000  1.0460000  1
   3104   3103   3106   3112     1  0.0000000  0.0000000  3
   3104   3103   3106   3107     1  0.0000000  0.6508444  3
   3104   3103   3106   3108     1  0.0000000  0.6508444  3
   3105   3103   3100   3109     1  0.0000000  0.6508444  3
   3105   3103   3106   3112     1  0.0000000  1.0460000  1
   3105   3103   3106   3112     1  0.0000000  0.0000000  3
   3105   3103   3106   3107     1  0.0000000  0.6508444  3
   3105   3103   3106   3108     1  0.0000000  0.6508444  3
   3114   3117   3120   3121     1  0.0000000  0.6508444  3
   3114   3117   3120   3122     1  0.0000000  0.6508444  3
   3115   3114   3117   3120     1  0.0000000  0.6508444  3
   3115   3114   3117   3118     1  0.0000000  0.6508444  3
   3115   3114   3117   3119     1  0.0000000  0.6508444  3
   3115   3114   3123   3124     1  0.0000000  0.6508444  3
   3115   3114   3123   3125     1  0.0000000  0.6508444  3
   3115   3114   3123   3127     1  0.0000000  0.6508444  3
   3116   3114   3117   3120     1  0.0000000  0.6508444  3
   3116   3114   3117   3118     1  0.0000000  0.6508444  3
   3116   3114   3117   3119     1  0.0000000  0.6508444  3
   3116   3114   3123   3124     1  0.0000000  0.6508444  3
   3116   3114   3123   3125     1  0.0000000  0.6508444  3
   3116   3114   3123   3127     1  0.0000000  0.6508444  3
   3117   3114   3123   3124     1  0.0000000  0.6508444  3
   3117   3114   3123   3125     1  0.0000000  0.6508444  3
   3117   3114   3123   3127     1  0.0000000  0.6508444  3
   3118   3117   3120   3126     1  0.0000000  1.0460000  1
   3118   3117   3120   3126     1  0.0000000  0.0000000  3
   3118   3117   3120   3121     1  0.0000000  0.6508444  3
   3118   3117   3120   3122     1  0.0000000  0.6508444  3
   3118   3117   3114   3123     1  0.0000000  0.6508444  3
   3119   3117   3120   3126     1  0.0000000  1.0460000  1
   3119   3117   3120   3126     1  0.0000000  0.0000000  3
   3119   3117   3120   3121     1  0.0000000  0.6508444  3
   3119   3117   3120   3122     1  0.0000000  0.6508444  3
   3119   3117   3114   3123     1  0.0000000  0.6508444  3
   3128   3131   3134   3135     1  0.0000000  0.6508444  3
   3128   3131   3134   3136     1  0.0000000  0.6508444  3
   3129   3128   3131   3134     1  0.0000000  0.6508444  3
   3129   3128   3131   3132     1  0.0000000  0.6508444  3
   3129   3128   3131   3133     1  0.0000000  0.6508444  3
   3129   3128   3137   3138     1  0.0000000  0.6508444  3
   3129   3128   3137   3139     1  0.0000000  0.6508444  3
   3129   3128   3137   3141     1  0.0000000  0.6508444  3
   3130   3128   3131   3134     1  0.0000000  0.6508444  3
   3130   3128   3131   3132     1  0.0000000  0.6508444  3
   3130   3128   3131   3133     1  0.0000000  0.6508444  3
   3130   3128   3137   3138     1  0.0000000  0.6508444  3
   3130   3128   3137   3139     1  0.0000000  0.6508444  3
   3130   3128   3137   3141     1  0.0000000  0.6508444  3
   3131   3128   3137   3138     1  0.0000000  0.6508444  3
   3131   3128   3137   3139     1  0.0000000  0.6508444  3
   3131   3128   3137   3141     1  0.0000000  0.6508444  3
   3132   3131   3128   3137     1  0.0000000  0.6508444  3
   3132   3131   3134   3140     1  0.0000000  1.0460000  1
   3132   3131   3134   3140     1  0.0000000  0.0000000  3
   3132   3131   3134   3135     1  0.0000000  0.6508444  3
   3132   3131   3134   3136     1  0.0000000  0.6508444  3
   3133   3131   3128   3137     1  0.0000000  0.6508444  3
   3133   3131   3134   3140     1  0.0000000  1.0460000  1
   3133   3131   3134   3140     1  0.0000000  0.0000000  3
   3133   3131   3134   3135     1  0.0000000  0.6508444  3
   3133   3131   3134   3136     1  0.0000000  0.6508444  3
   3142   3145   3148   3149     1  0.0000000  0.6508444  3
   3142   3145   3148   3150     1  0.0000000  0.6508444  3
   3143   3142   3145   3148     1  0.0000000  0.6508444  3
   3143   3142   3145   3146     1  0.0000000  0.6508444  3
   3143   3142   3145   3147     1  0.0000000  0.6508444  3
   3143   3142   3151   3152     1  0.0000000  0.6508444  3
   3143   3142   3151   3153     1  0.0000000  0.6508444  3
   3143   3142   3151   3155     1  0.0000000  0.6508444  3
   3144   3142   3145   3148     1  0.0000000  0.6508444  3
   3144   3142   3145   3146     1  0.0000000  0.6508444  3
   3144   3142   3145   3147     1  0.0000000  0.6508444  3
   3144   3142   3151   3152     1  0.0000000  0.6508444  3
   3144   3142   3151   3153     1  0.0000000  0.6508444  3
   3144   3142   3151   3155     1  0.0000000  0.6508444  3
   3145   3142   3151   3152     1  0.0000000  0.6508444  3
   3145   3142   3151   3153     1  0.0000000  0.6508444  3
   3145   3142   3151   3155     1  0.0000000  0.6508444  3
   3146   3145   3148   3154     1  0.0000000  1.0460000  1
   3146   3145   3148   3154     1  0.0000000  0.0000000  3
   3146   3145   3148   3149     1  0.0000000  0.6508444  3
   3146   3145   3148   3150     1  0.0000000  0.6508444  3
   3146   3145   3142   3151     1  0.0000000  0.6508444  3
   3147   3145   3148   3154     1  0.0000000  1.0460000  1
   3147   3145   3148   3154     1  0.0000000  0.0000000  3
   3147   3145   3148   3149     1  0.0000000  0.6508444  3
   3147   3145   3148   3150     1  0.0000000  0.6508444  3
   3147   3145   3142   3151     1  0.0000000  0.6508444  3
   3156   3159   3162   3163     1  0.0000000  0.6508444  3
   3156   3159   3162   3164     1  0.0000000  0.6508444  3
   3157   3156   3159   3162     1  0.0000000  0.6508444  3
   3157   3156   3159   3160     1  0.0000000  0.6508444  3
   3157   3156   3159   3161     1  0.0000000  0.6508444  3
   3157   3156   3165   3166     1  0.0000000  0.6508444  3
   3157   3156   3165   3167     1  0.0000000  0.6508444  3
   3157   3156   3165   3169     1  0.0000000  0.6508444  3
   3158   3156   3159   3162     1  0.0000000  0.6508444  3
   3158   3156   3159   3160     1  0.0000000  0.6508444  3
   3158   3156   3159   3161     1  0.0000000  0.6508444  3
   3158   3156   3165   3166     1  0.0000000  0.6508444  3
   3158   3156   3165   3167     1  0.0000000  0.6508444  3
   3158   3156   3165   3169     1  0.0000000  0.6508444  3
   3159   3156   3165   3166     1  0.0000000  0.6508444  3
   3159   3156   3165   3167     1  0.0000000  0.6508444  3
   3159   3156   3165   3169     1  0.0000000  0.6508444  3
   3160   3159   3156   3165     1  0.0000000  0.6508444  3
   3160   3159   3162   3168     1  0.0000000  1.0460000  1
   3160   3159   3162   3168     1  0.0000000  0.0000000  3
   3160   3159   3162   3163     1  0.0000000  0.6508444  3
   3160   3159   3162   3164     1  0.0000000  0.6508444  3
   3161   3159   3156   3165     1  0.0000000  0.6508444  3
   3161   3159   3162   3168     1  0.0000000  1.0460000  1
   3161   3159   3162   3168     1  0.0000000  0.0000000  3
   3161   3159   3162   3163     1  0.0000000  0.6508444  3
   3161   3159   3162   3164     1  0.0000000  0.6508444  3
   3170   3173   3176   3177     1  0.0000000  0.6508444  3
   3170   3173   3176   3178     1  0.0000000  0.6508444  3
   3171   3170   3173   3176     1  0.0000000  0.6508444  3
   3171   3170   3173   3174     1  0.0000000  0.6508444  3
   3171   3170   3173   3175     1  0.0000000  0.6508444  3
   3171   3170   3179   3180     1  0.0000000  0.6508444  3
   3171   3170   3179   3181     1  0.0000000  0.6508444  3
   3171   3170   3179   3183     1  0.0000000  0.6508444  3
   3172   3170   3173   3176     1  0.0000000  0.6508444  3
   3172   3170   3173   3174     1  0.0000000  0.6508444  3
   3172   3170   3173   3175     1  0.0000000  0.6508444  3
   3172   3170   3179   3180     1  0.0000000  0.6508444  3
   3172   3170   3179   3181     1  0.0000000  0.6508444  3
   3172   3170   3179   3183     1  0.0000000  0.6508444  3
   3173   3170   3179   3180     1  0.0000000  0.6508444  3
   3173   3170   3179   3181     1  0.0000000  0.6508444  3
   3173   3170   3179   3183     1  0.0000000  0.6508444  3
   3174   3173   3176   3182     1  0.0000000  1.0460000  1
   3174   3173   3176   3182     1  0.0000000  0.0000000  3
   3174   3173   3176   3177     1  0.0000000  0.6508444  3
   3174   3173   3176   3178     1  0.0000000  0.6508444  3
   3174   3173   3170   3179     1  0.0000000  0.6508444  3
   3175   3173   3176   3182     1  0.0000000  1.0460000  1
   3175   3173   3176   3182     1  0.0000000  0.0000000  3
   3175   3173   3176   3177     1  0.0000000  0.6508444  3
   3175   3173   3176   3178     1  0.0000000  0.6508444  3
   3175   3173   3170   3179     1  0.0000000  0.6508444  3
   3184   3187   3190   3191     1  0.0000000  0.6508444  3
   3184   3187   3190   3192     1  0.0000000  0.6508444  3
   3185   3184   3187   3190     1  0.0000000  0.6508444  3
   3185   3184   3187   3188     1  0.0000000  0.6508444  3
   3185   3184   3187   3189     1  0.0000000  0.6508444  3
   3185   3184   3193   3194     1  0.0000000  0.6508444  3
   3185   3184   3193   3195     1  0.0000000  0.6508444  3
   3185   3184   3193   3197     1  0.0000000  0.6508444  3
   3186   3184   3187   3190     1  0.0000000  0.6508444  3
   3186   3184   3187   3188     1  0.0000000  0.6508444  3
   3186   3184   3187   3189     1  0.0000000  0.6508444  3
   3186   3184   3193   3194     1  0.0000000  0.6508444  3
   3186   3184   3193   3195     1  0.0000000  0.6508444  3
   3186   3184   3193   3197     1  0.0000000  0.6508444  3
   3187   3184   3193   3194     1  0.0000000  0.6508444  3
   3187   3184   3193   3195     1  0.0000000  0.6508444  3
   3187   3184   3193   3197     1  0.0000000  0.6508444  3
   3188   3187   3184   3193     1  0.0000000  0.6508444  3
   3188   3187   3190   3196     1  0.0000000  1.0460000  1
   3188   3187   3190   3196     1  0.0000000  0.0000000  3
   3188   3187   3190   3191     1  0.0000000  0.6508444  3
   3188   3187   3190   3192     1  0.0000000  0.6508444  3
   3189   3187   3184   3193     1  0.0000000  0.6508444  3
   3189   3187   3190   3196     1  0.0000000  1.0460000  1
   3189   3187   3190   3196     1  0.0000000  0.0000000  3
   3189   3187   3190   3191     1  0.0000000  0.6508444  3
   3189   3187   3190   3192     1  0.0000000  0.6508444  3
   3198   3201   3204   3205     1  0.0000000  0.6508444  3
   3198   3201   3204   3206     1  0.0000000  0.6508444  3
   3199   3198   3201   3204     1  0.0000000  0.6508444  3
   3199   3198   3201   3202     1  0.0000000  0.6508444  3
   3199   3198   3201   3203     1  0.0000000  0.6508444  3
   3199   3198   3207   3208     1  0.0000000  0.6508444  3
   3199   3198   3207   3209     1  0.0000000  0.6508444  3
   3199   3198   3207   3211     1  0.0000000  0.6508444  3
   3200   3198   3201   3204     1  0.0000000  0.6508444  3
   3200   3198   3201   3202     1  0.0000000  0.6508444  3
   3200   3198   3201   3203     1  0.0000000  0.6508444  3
   3200   3198   3207   3208     1  0.0000000  0.6508444  3
   3200   3198   3207   3209     1  0.0000000  0.6508444  3
   3200   3198   3207   3211     1  0.0000000  0.6508444  3
   3201   3198   3207   3208     1  0.0000000  0.6508444  3
   3201   3198   3207   3209     1  0.0000000  0.6508444  3
   3201   3198   3207   3211     1  0.0000000  0.6508444  3
   3202   3201   3204   3210     1  0.0000000  1.0460000  1
   3202   3201   3204   3210     1  0.0000000  0.0000000  3
   3202   3201   3204   3205     1  0.0000000  0.6508444  3
   3202   3201   3204   3206     1  0.0000000  0.6508444  3
   3202   3201   3198   3207     1  0.0000000  0.6508444  3
   3203   3201   3204   3210     1  0.0000000  1.0460000  1
   3203   3201   3204   3210     1  0.0000000  0.0000000  3
   3203   3201   3204   3205     1  0.0000000  0.6508444  3
   3203   3201   3204   3206     1  0.0000000  0.6508444  3
   3203   3201   3198   3207     1  0.0000000  0.6508444  3
   3212   3215   3218   3219     1  0.0000000  0.6508444  3
   3212   3215   3218   3220     1  0.0000000  0.6508444  3
   3213   3212   3215   3218     1  0.0000000  0.6508444  3
   3213   3212   3215   3216     1  0.0000000  0.6508444  3
   3213   3212   3215   3217     1  0.0000000  0.6508444  3
   3213   3212   3221   3222     1  0.0000000  0.6508444  3
   3213   3212   3221   3223     1  0.0000000  0.6508444  3
   3213   3212   3221   3225     1  0.0000000  0.6508444  3
   3214   3212   3215   3218     1  0.0000000  0.6508444  3
   3214   3212   3215   3216     1  0.0000000  0.6508444  3
   3214   3212   3215   3217     1  0.0000000  0.6508444  3
   3214   3212   3221   3222     1  0.0000000  0.6508444  3
   3214   3212   3221   3223     1  0.0000000  0.6508444  3
   3214   3212   3221   3225     1  0.0000000  0.6508444  3
   3215   3212   3221   3222     1  0.0000000  0.6508444  3
   3215   3212   3221   3223     1  0.0000000  0.6508444  3
   3215   3212   3221   3225     1  0.0000000  0.6508444  3
   3216   3215   3212   3221     1  0.0000000  0.6508444  3
   3216   3215   3218   3224     1  0.0000000  1.0460000  1
   3216   3215   3218   3224     1  0.0000000  0.0000000  3
   3216   3215   3218   3219     1  0.0000000  0.6508444  3
   3216   3215   3218   3220     1  0.0000000  0.6508444  3
   3217   3215   3212   3221     1  0.0000000  0.6508444  3
   3217   3215   3218   3224     1  0.0000000  1.0460000  1
   3217   3215   3218   3224     1  0.0000000  0.0000000  3
   3217   3215   3218   3219     1  0.0000000  0.6508444  3
   3217   3215   3218   3220     1  0.0000000  0.6508444  3
   3226   3229   3232   3233     1  0.0000000  0.6508444  3
   3226   3229   3232   3234     1  0.0000000  0.6508444  3
   3227   3226   3229   3232     1  0.0000000  0.6508444  3
   3227   3226   3229   3230     1  0.0000000  0.6508444  3
   3227   3226   3229   3231     1  0.0000000  0.6508444  3
   3227   3226   3235   3236     1  0.0000000  0.6508444  3
   3227   3226   3235   3237     1  0.0000000  0.6508444  3
   3227   3226   3235   3239     1  0.0000000  0.6508444  3
   3228   3226   3229   3232     1  0.0000000  0.6508444  3
   3228   3226   3229   3230     1  0.0000000  0.6508444  3
   3228   3226   3229   3231     1  0.0000000  0.6508444  3
   3228   3226   3235   3236     1  0.0000000  0.6508444  3
   3228   3226   3235   3237     1  0.0000000  0.6508444  3
   3228   3226   3235   3239     1  0.0000000  0.6508444  3
   3229   3226   3235   3236     1  0.0000000  0.6508444  3
   3229   3226   3235   3237     1  0.0000000  0.6508444  3
   3229   3226   3235   3239     1  0.0000000  0.6508444  3
   3230   3229   3232   3238     1  0.0000000  1.0460000  1
   3230   3229   3232   3238     1  0.0000000  0.0000000  3
   3230   3229   3232   3233     1  0.0000000  0.6508444  3
   3230   3229   3232   3234     1  0.0000000  0.6508444  3
   3230   3229   3226   3235     1  0.0000000  0.6508444  3
   3231   3229   3232   3238     1  0.0000000  1.0460000  1
   3231   3229   3232   3238     1  0.0000000  0.0000000  3
   3231   3229   3232   3233     1  0.0000000  0.6508444  3
   3231   3229   3232   3234     1  0.0000000  0.6508444  3
   3231   3229   3226   3235     1  0.0000000  0.6508444  3
   3240   3243   3246   3247     1  0.0000000  0.6508444  3
   3240   3243   3246   3248     1  0.0000000  0.6508444  3
   3241   3240   3243   3246     1  0.0000000  0.6508444  3
   3241   3240   3243   3244     1  0.0000000  0.6508444  3
   3241   3240   3243   3245     1  0.0000000  0.6508444  3
   3241   3240   3249   3250     1  0.0000000  0.6508444  3
   3241   3240   3249   3251     1  0.0000000  0.6508444  3
   3241   3240   3249   3253     1  0.0000000  0.6508444  3
   3242   3240   3243   3246     1  0.0000000  0.6508444  3
   3242   3240   3243   3244     1  0.0000000  0.6508444  3
   3242   3240   3243   3245     1  0.0000000  0.6508444  3
   3242   3240   3249   3250     1  0.0000000  0.6508444  3
   3242   3240   3249   3251     1  0.0000000  0.6508444  3
   3242   3240   3249   3253     1  0.0000000  0.6508444  3
   3243   3240   3249   3250     1  0.0000000  0.6508444  3
   3243   3240   3249   3251     1  0.0000000  0.6508444  3
   3243   3240   3249   3253     1  0.0000000  0.6508444  3
   3244   3243   3240   3249     1  0.0000000  0.6508444  3
   3244   3243   3246   3252     1  0.0000000  1.0460000  1
   3244   3243   3246   3252     1  0.0000000  0.0000000  3
   3244   3243   3246   3247     1  0.0000000  0.6508444  3
   3244   3243   3246   3248     1  0.0000000  0.6508444  3
   3245   3243   3240   3249     1  0.0000000  0.6508444  3
   3245   3243   3246   3252     1  0.0000000  1.0460000  1
   3245   3243   3246   3252     1  0.0000000  0.0000000  3
   3245   3243   3246   3247     1  0.0000000  0.6508444  3
   3245   3243   3246   3248     1  0.0000000  0.6508444  3
   3254   3257   3260   3261     1  0.0000000  0.6508444  3
   3254   3257   3260   3262     1  0.0000000  0.6508444  3
   3255   3254   3257   3260     1  0.0000000  0.6508444  3
   3255   3254   3257   3258     1  0.0000000  0.6508444  3
   3255   3254   3257   3259     1  0.0000000  0.6508444  3
   3255   3254   3263   3264     1  0.0000000  0.6508444  3
   3255   3254   3263   3265     1  0.0000000  0.6508444  3
   3255   3254   3263   3267     1  0.0000000  0.6508444  3
   3256   3254   3257   3260     1  0.0000000  0.6508444  3
   3256   3254   3257   3258     1  0.0000000  0.6508444  3
   3256   3254   3257   3259     1  0.0000000  0.6508444  3
   3256   3254   3263   3264     1  0.0000000  0.6508444  3
   3256   3254   3263   3265     1  0.0000000  0.6508444  3
   3256   3254   3263   3267     1  0.0000000  0.6508444  3
   3257   3254   3263   3264     1  0.0000000  0.6508444  3
   3257   3254   3263   3265     1  0.0000000  0.6508444  3
   3257   3254   3263   3267     1  0.0000000  0.6508444  3
   3258   3257   3260   3266     1  0.0000000  1.0460000  1
   3258   3257   3260   3266     1  0.0000000  0.0000000  3
   3258   3257   3260   3261     1  0.0000000  0.6508444  3
   3258   3257   3260   3262     1  0.0000000  0.6508444  3
   3258   3257   3254   3263     1  0.0000000  0.6508444  3
   3259   3257   3260   3266     1  0.0000000  1.0460000  1
   3259   3257   3260   3266     1  0.0000000  0.0000000  3
   3259   3257   3260   3261     1  0.0000000  0.6508444  3
   3259   3257   3260   3262     1  0.0000000  0.6508444  3
   3259   3257   3254   3263     1  0.0000000  0.6508444  3
   3268   3271   3274   3275     1  0.0000000  0.6508444  3
   3268   3271   3274   3276     1  0.0000000  0.6508444  3
   3269   3268   3271   3274     1  0.0000000  0.6508444  3
   3269   3268   3271   3272     1  0.0000000  0.6508444  3
   3269   3268   3271   3273     1  0.0000000  0.6508444  3
   3269   3268   3277   3278     1  0.0000000  0.6508444  3
   3269   3268   3277   3279     1  0.0000000  0.6508444  3
   3269   3268   3277   3281     1  0.0000000  0.6508444  3
   3270   3268   3271   3274     1  0.0000000  0.6508444  3
   3270   3268   3271   3272     1  0.0000000  0.6508444  3
   3270   3268   3271   3273     1  0.0000000  0.6508444  3
   3270   3268   3277   3278     1  0.0000000  0.6508444  3
   3270   3268   3277   3279     1  0.0000000  0.6508444  3
   3270   3268   3277   3281     1  0.0000000  0.6508444  3
   3271   3268   3277   3278     1  0.0000000  0.6508444  3
   3271   3268   3277   3279     1  0.0000000  0.6508444  3
   3271   3268   3277   3281     1  0.0000000  0.6508444  3
   3272   3271   3268   3277     1  0.0000000  0.6508444  3
   3272   3271   3274   3280     1  0.0000000  1.0460000  1
   3272   3271   3274   3280     1  0.0000000  0.0000000  3
   3272   3271   3274   3275     1  0.0000000  0.6508444  3
   3272   3271   3274   3276     1  0.0000000  0.6508444  3
   3273   3271   3268   3277     1  0.0000000  0.6508444  3
   3273   3271   3274   3280     1  0.0000000  1.0460000  1
   3273   3271   3274   3280     1  0.0000000  0.0000000  3
   3273   3271   3274   3275     1  0.0000000  0.6508444  3
   3273   3271   3274   3276     1  0.0000000  0.6508444  3
   3282   3285   3288   3289     1  0.0000000  0.6508444  3
   3282   3285   3288   3290     1  0.0000000  0.6508444  3
   3283   3282   3285   3288     1  0.0000000  0.6508444  3
   3283   3282   3285   3286     1  0.0000000  0.6508444  3
   3283   3282   3285   3287     1  0.0000000  0.6508444  3
   3283   3282   3291   3292     1  0.0000000  0.6508444  3
   3283   3282   3291   3293     1  0.0000000  0.6508444  3
   3283   3282   3291   3295     1  0.0000000  0.6508444  3
   3284   3282   3285   3288     1  0.0000000  0.6508444  3
   3284   3282   3285   3286     1  0.0000000  0.6508444  3
   3284   3282   3285   3287     1  0.0000000  0.6508444  3
   3284   3282   3291   3292     1  0.0000000  0.6508444  3
   3284   3282   3291   3293     1  0.0000000  0.6508444  3
   3284   3282   3291   3295     1  0.0000000  0.6508444  3
   3285   3282   3291   3292     1  0.0000000  0.6508444  3
   3285   3282   3291   3293     1  0.0000000  0.6508444  3
   3285   3282   3291   3295     1  0.0000000  0.6508444  3
   3286   3285   3288   3294     1  0.0000000  1.0460000  1
   3286   3285   3288   3294     1  0.0000000  0.0000000  3
   3286   3285   3288   3289     1  0.0000000  0.6508444  3
   3286   3285   3288   3290     1  0.0000000  0.6508444  3
   3286   3285   3282   3291     1  0.0000000  0.6508444  3
   3287   3285   3288   3294     1  0.0000000  1.0460000  1
   3287   3285   3288   3294     1  0.0000000  0.0000000  3
   3287   3285   3288   3289     1  0.0000000  0.6508444  3
   3287   3285   3288   3290     1  0.0000000  0.6508444  3
   3287   3285   3282   3291     1  0.0000000  0.6508444  3
   3296   3299   3302   3303     1  0.0000000  0.6508444  3
   3296   3299   3302   3304     1  0.0000000  0.6508444  3
   3297   3296   3299   3302     1  0.0000000  0.6508444  3
   3297   3296   3299   3300     1  0.0000000  0.6508444  3
   3297   3296   3299   3301     1  0.0000000  0.6508444  3
   3297   3296   3305   3306     1  0.0000000  0.6508444  3
   3297   3296   3305   3307     1  0.0000000  0.6508444  3
   3297   3296   3305   3309     1  0.0000000  0.6508444  3
   3298   3296   3299   3302     1  0.0000000  0.6508444  3
   3298   3296   3299   3300     1  0.0000000  0.6508444  3
   3298   3296   3299   3301     1  0.0000000  0.6508444  3
   3298   3296   3305   3306     1  0.0000000  0.6508444  3
   3298   3296   3305   3307     1  0.0000000  0.6508444  3
   3298   3296   3305   3309     1  0.0000000  0.6508444  3
   3299   3296   3305   3306     1  0.0000000  0.6508444  3
   3299   3296   3305   3307     1  0.0000000  0.6508444  3
   3299   3296   3305   3309     1  0.0000000  0.6508444  3
   3300   3299   3296   3305     1  0.0000000  0.6508444  3
   3300   3299   3302   3308     1  0.0000000  1.0460000  1
   3300   3299   3302   3308     1  0.0000000  0.0000000  3
   3300   3299   3302   3303     1  0.0000000  0.6508444  3
   3300   3299   3302   3304     1  0.0000000  0.6508444  3
   3301   3299   3296   3305     1  0.0000000  0.6508444  3
   3301   3299   3302   3308     1  0.0000000  1.0460000  1
   3301   3299   3302   3308     1  0.0000000  0.0000000  3
   3301   3299   3302   3303     1  0.0000000  0.6508444  3
   3301   3299   3302   3304     1  0.0000000  0.6508444  3
   3310   3313   3316   3317     1  0.0000000  0.6508444  3
   3310   3313   3316   3318     1  0.0000000  0.6508444  3
   3311   3310   3313   3316     1  0.0000000  0.6508444  3
   3311   3310   3313   3314     1  0.0000000  0.6508444  3
   3311   3310   3313   3315     1  0.0000000  0.6508444  3
   3311   3310   3319   3320     1  0.0000000  0.6508444  3
   3311   3310   3319   3321     1  0.0000000  0.6508444  3
   3311   3310   3319   3323     1  0.0000000  0.6508444  3
   3312   3310   3313   3316     1  0.0000000  0.6508444  3
   3312   3310   3313   3314     1  0.0000000  0.6508444  3
   3312   3310   3313   3315     1  0.0000000  0.6508444  3
   3312   3310   3319   3320     1  0.0000000  0.6508444  3
   3312   3310   3319   3321     1  0.0000000  0.6508444  3
   3312   3310   3319   3323     1  0.0000000  0.6508444  3
   3313   3310   3319   3320     1  0.0000000  0.6508444  3
   3313   3310   3319   3321     1  0.0000000  0.6508444  3
   3313   3310   3319   3323     1  0.0000000  0.6508444  3
   3314   3313   3316   3322     1  0.0000000  1.0460000  1
   3314   3313   3316   3322     1  0.0000000  0.0000000  3
   3314   3313   3316   3317     1  0.0000000  0.6508444  3
   3314   3313   3316   3318     1  0.0000000  0.6508444  3
   3314   3313   3310   3319     1  0.0000000  0.6508444  3
   3315   3313   3316   3322     1  0.0000000  1.0460000  1
   3315   3313   3316   3322     1  0.0000000  0.0000000  3
   3315   3313   3316   3317     1  0.0000000  0.6508444  3
   3315   3313   3316   3318     1  0.0000000  0.6508444  3
   3315   3313   3310   3319     1  0.0000000  0.6508444  3
   3324   3327   3330   3331     1  0.0000000  0.6508444  3
   3324   3327   3330   3332     1  0.0000000  0.6508444  3
   3325   3324   3327   3330     1  0.0000000  0.6508444  3
   3325   3324   3327   3328     1  0.0000000  0.6508444  3
   3325   3324   3327   3329     1  0.0000000  0.6508444  3
   3325   3324   3333   3334     1  0.0000000  0.6508444  3
   3325   3324   3333   3335     1  0.0000000  0.6508444  3
   3325   3324   3333   3337     1  0.0000000  0.6508444  3
   3326   3324   3327   3330     1  0.0000000  0.6508444  3
   3326   3324   3327   3328     1  0.0000000  0.6508444  3
   3326   3324   3327   3329     1  0.0000000  0.6508444  3
   3326   3324   3333   3334     1  0.0000000  0.6508444  3
   3326   3324   3333   3335     1  0.0000000  0.6508444  3
   3326   3324   3333   3337     1  0.0000000  0.6508444  3
   3327   3324   3333   3334     1  0.0000000  0.6508444  3
   3327   3324   3333   3335     1  0.0000000  0.6508444  3
   3327   3324   3333   3337     1  0.0000000  0.6508444  3
   3328   3327   3324   3333     1  0.0000000  0.6508444  3
   3328   3327   3330   3336     1  0.0000000  1.0460000  1
   3328   3327   3330   3336     1  0.0000000  0.0000000  3
   3328   3327   3330   3331     1  0.0000000  0.6508444  3
   3328   3327   3330   3332     1  0.0000000  0.6508444  3
   3329   3327   3324   3333     1  0.0000000  0.6508444  3
   3329   3327   3330   3336     1  0.0000000  1.0460000  1
   3329   3327   3330   3336     1  0.0000000  0.0000000  3
   3329   3327   3330   3331     1  0.0000000  0.6508444  3
   3329   3327   3330   3332     1  0.0000000  0.6508444  3
   3338   3341   3344   3345     1  0.0000000  0.6508444  3
   3338   3341   3344   3346     1  0.0000000  0.6508444  3
   3339   3338   3341   3344     1  0.0000000  0.6508444  3
   3339   3338   3341   3342     1  0.0000000  0.6508444  3
   3339   3338   3341   3343     1  0.0000000  0.6508444  3
   3339   3338   3347   3348     1  0.0000000  0.6508444  3
   3339   3338   3347   3349     1  0.0000000  0.6508444  3
   3339   3338   3347   3351     1  0.0000000  0.6508444  3
   3340   3338   3341   3344     1  0.0000000  0.6508444  3
   3340   3338   3341   3342     1  0.0000000  0.6508444  3
   3340   3338   3341   3343     1  0.0000000  0.6508444  3
   3340   3338   3347   3348     1  0.0000000  0.6508444  3
   3340   3338   3347   3349     1  0.0000000  0.6508444  3
   3340   3338   3347   3351     1  0.0000000  0.6508444  3
   3341   3338   3347   3348     1  0.0000000  0.6508444  3
   3341   3338   3347   3349     1  0.0000000  0.6508444  3
   3341   3338   3347   3351     1  0.0000000  0.6508444  3
   3342   3341   3344   3350     1  0.0000000  1.0460000  1
   3342   3341   3344   3350     1  0.0000000  0.0000000  3
   3342   3341   3344   3345     1  0.0000000  0.6508444  3
   3342   3341   3344   3346     1  0.0000000  0.6508444  3
   3342   3341   3338   3347     1  0.0000000  0.6508444  3
   3343   3341   3344   3350     1  0.0000000  1.0460000  1
   3343   3341   3344   3350     1  0.0000000  0.0000000  3
   3343   3341   3344   3345     1  0.0000000  0.6508444  3
   3343   3341   3344   3346     1  0.0000000  0.6508444  3
   3343   3341   3338   3347     1  0.0000000  0.6508444  3
   3352   3355   3358   3359     1  0.0000000  0.6508444  3
   3352   3355   3358   3360     1  0.0000000  0.6508444  3
   3353   3352   3355   3358     1  0.0000000  0.6508444  3
   3353   3352   3355   3356     1  0.0000000  0.6508444  3
   3353   3352   3355   3357     1  0.0000000  0.6508444  3
   3353   3352   3361   3362     1  0.0000000  0.6508444  3
   3353   3352   3361   3363     1  0.0000000  0.6508444  3
   3353   3352   3361   3365     1  0.0000000  0.6508444  3
   3354   3352   3355   3358     1  0.0000000  0.6508444  3
   3354   3352   3355   3356     1  0.0000000  0.6508444  3
   3354   3352   3355   3357     1  0.0000000  0.6508444  3
   3354   3352   3361   3362     1  0.0000000  0.6508444  3
   3354   3352   3361   3363     1  0.0000000  0.6508444  3
   3354   3352   3361   3365     1  0.0000000  0.6508444  3
   3355   3352   3361   3362     1  0.0000000  0.6508444  3
   3355   3352   3361   3363     1  0.0000000  0.6508444  3
   3355   3352   3361   3365     1  0.0000000  0.6508444  3
   3356   3355   3352   3361     1  0.0000000  0.6508444  3
   3356   3355   3358   3364     1  0.0000000  1.0460000  1
   3356   3355   3358   3364     1  0.0000000  0.0000000  3
   3356   3355   3358   3359     1  0.0000000  0.6508444  3
   3356   3355   3358   3360     1  0.0000000  0.6508444  3
   3357   3355   3352   3361     1  0.0000000  0.6508444  3
   3357   3355   3358   3364     1  0.0000000  1.0460000  1
   3357   3355   3358   3364     1  0.0000000  0.0000000  3
   3357   3355   3358   3359     1  0.0000000  0.6508444  3
   3357   3355   3358   3360     1  0.0000000  0.6508444  3
   3366   3369   3372   3373     1  0.0000000  0.6508444  3
   3366   3369   3372   3374     1  0.0000000  0.6508444  3
   3367   3366   3369   3372     1  0.0000000  0.6508444  3
   3367   3366   3369   3370     1  0.0000000  0.6508444  3
   3367   3366   3369   3371     1  0.0000000  0.6508444  3
   3367   3366   3375   3376     1  0.0000000  0.6508444  3
   3367   3366   3375   3377     1  0.0000000  0.6508444  3
   3367   3366   3375   3379     1  0.0000000  0.6508444  3
   3368   3366   3369   3372     1  0.0000000  0.6508444  3
   3368   3366   3369   3370     1  0.0000000  0.6508444  3
   3368   3366   3369   3371     1  0.0000000  0.6508444  3
   3368   3366   3375   3376     1  0.0000000  0.6508444  3
   3368   3366   3375   3377     1  0.0000000  0.6508444  3
   3368   3366   3375   3379     1  0.0000000  0.6508444  3
   3369   3366   3375   3376     1  0.0000000  0.6508444  3
   3369   3366   3375   3377     1  0.0000000  0.6508444  3
   3369   3366   3375   3379     1  0.0000000  0.6508444  3
   3370   3369   3372   3378     1  0.0000000  1.0460000  1
   3370   3369   3372   3378     1  0.0000000  0.0000000  3
   3370   3369   3372   3373     1  0.0000000  0.6508444  3
   3370   3369   3372   3374     1  0.0000000  0.6508444  3
   3370   3369   3366   3375     1  0.0000000  0.6508444  3
   3371   3369   3372   3378     1  0.0000000  1.0460000  1
   3371   3369   3372   3378     1  0.0000000  0.0000000  3
   3371   3369   3372   3373     1  0.0000000  0.6508444  3
   3371   3369   3372   3374     1  0.0000000  0.6508444  3
   3371   3369   3366   3375     1  0.0000000  0.6508444  3
   3380   3383   3386   3387     1  0.0000000  0.6508444  3
   3380   3383   3386   3388     1  0.0000000  0.6508444  3
   3381   3380   3383   3386     1  0.0000000  0.6508444  3
   3381   3380   3383   3384     1  0.0000000  0.6508444  3
   3381   3380   3383   3385     1  0.0000000  0.6508444  3
   3381   3380   3389   3390     1  0.0000000  0.6508444  3
   3381   3380   3389   3391     1  0.0000000  0.6508444  3
   3381   3380   3389   3393     1  0.0000000  0.6508444  3
   3382   3380   3383   3386     1  0.0000000  0.6508444  3
   3382   3380   3383   3384     1  0.0000000  0.6508444  3
   3382   3380   3383   3385     1  0.0000000  0.6508444  3
   3382   3380   3389   3390     1  0.0000000  0.6508444  3
   3382   3380   3389   3391     1  0.0000000  0.6508444  3
   3382   3380   3389   3393     1  0.0000000  0.6508444  3
   3383   3380   3389   3390     1  0.0000000  0.6508444  3
   3383   3380   3389   3391     1  0.0000000  0.6508444  3
   3383   3380   3389   3393     1  0.0000000  0.6508444  3
   3384   3383   3380   3389     1  0.0000000  0.6508444  3
   3384   3383   3386   3392     1  0.0000000  1.0460000  1
   3384   3383   3386   3392     1  0.0000000  0.0000000  3
   3384   3383   3386   3387     1  0.0000000  0.6508444  3
   3384   3383   3386   3388     1  0.0000000  0.6508444  3
   3385   3383   3380   3389     1  0.0000000  0.6508444  3
   3385   3383   3386   3392     1  0.0000000  1.0460000  1
   3385   3383   3386   3392     1  0.0000000  0.0000000  3
   3385   3383   3386   3387     1  0.0000000  0.6508444  3
   3385   3383   3386   3388     1  0.0000000  0.6508444  3
   3394   3397   3400   3401     1  0.0000000  0.6508444  3
   3394   3397   3400   3402     1  0.0000000  0.6508444  3
   3395   3394   3397   3400     1  0.0000000  0.6508444  3
   3395   3394   3397   3398     1  0.0000000  0.6508444  3
   3395   3394   3397   3399     1  0.0000000  0.6508444  3
   3395   3394   3403   3404     1  0.0000000  0.6508444  3
   3395   3394   3403   3405     1  0.0000000  0.6508444  3
   3395   3394   3403   3407     1  0.0000000  0.6508444  3
   3396   3394   3397   3400     1  0.0000000  0.6508444  3
   3396   3394   3397   3398     1  0.0000000  0.6508444  3
   3396   3394   3397   3399     1  0.0000000  0.6508444  3
   3396   3394   3403   3404     1  0.0000000  0.6508444  3
   3396   3394   3403   3405     1  0.0000000  0.6508444  3
   3396   3394   3403   3407     1  0.0000000  0.6508444  3
   3397   3394   3403   3404     1  0.0000000  0.6508444  3
   3397   3394   3403   3405     1  0.0000000  0.6508444  3
   3397   3394   3403   3407     1  0.0000000  0.6508444  3
   3398   3397   3400   3406     1  0.0000000  1.0460000  1
   3398   3397   3400   3406     1  0.0000000  0.0000000  3
   3398   3397   3400   3401     1  0.0000000  0.6508444  3
   3398   3397   3400   3402     1  0.0000000  0.6508444  3
   3398   3397   3394   3403     1  0.0000000  0.6508444  3
   3399   3397   3400   3406     1  0.0000000  1.0460000  1
   3399   3397   3400   3406     1  0.0000000  0.0000000  3
   3399   3397   3400   3401     1  0.0000000  0.6508444  3
   3399   3397   3400   3402     1  0.0000000  0.6508444  3
   3399   3397   3394   3403     1  0.0000000  0.6508444  3
   3408   3411   3414   3415     1  0.0000000  0.6508444  3
   3408   3411   3414   3416     1  0.0000000  0.6508444  3
   3409   3408   3411   3414     1  0.0000000  0.6508444  3
   3409   3408   3411   3412     1  0.0000000  0.6508444  3
   3409   3408   3411   3413     1  0.0000000  0.6508444  3
   3409   3408   3417   3418     1  0.0000000  0.6508444  3
   3409   3408   3417   3419     1  0.0000000  0.6508444  3
   3409   3408   3417   3421     1  0.0000000  0.6508444  3
   3410   3408   3411   3414     1  0.0000000  0.6508444  3
   3410   3408   3411   3412     1  0.0000000  0.6508444  3
   3410   3408   3411   3413     1  0.0000000  0.6508444  3
   3410   3408   3417   3418     1  0.0000000  0.6508444  3
   3410   3408   3417   3419     1  0.0000000  0.6508444  3
   3410   3408   3417   3421     1  0.0000000  0.6508444  3
   3411   3408   3417   3418     1  0.0000000  0.6508444  3
   3411   3408   3417   3419     1  0.0000000  0.6508444  3
   3411   3408   3417   3421     1  0.0000000  0.6508444  3
   3412   3411   3408   3417     1  0.0000000  0.6508444  3
   3412   3411   3414   3420     1  0.0000000  1.0460000  1
   3412   3411   3414   3420     1  0.0000000  0.0000000  3
   3412   3411   3414   3415     1  0.0000000  0.6508444  3
   3412   3411   3414   3416     1  0.0000000  0.6508444  3
   3413   3411   3408   3417     1  0.0000000  0.6508444  3
   3413   3411   3414   3420     1  0.0000000  1.0460000  1
   3413   3411   3414   3420     1  0.0000000  0.0000000  3
   3413   3411   3414   3415     1  0.0000000  0.6508444  3
   3413   3411   3414   3416     1  0.0000000  0.6508444  3
   3422   3425   3428   3429     1  0.0000000  0.6508444  3
   3422   3425   3428   3430     1  0.0000000  0.6508444  3
   3423   3422   3425   3428     1  0.0000000  0.6508444  3
   3423   3422   3425   3426     1  0.0000000  0.6508444  3
   3423   3422   3425   3427     1  0.0000000  0.6508444  3
   3423   3422   3431   3432     1  0.0000000  0.6508444  3
   3423   3422   3431   3433     1  0.0000000  0.6508444  3
   3423   3422   3431   3435     1  0.0000000  0.6508444  3
   3424   3422   3425   3428     1  0.0000000  0.6508444  3
   3424   3422   3425   3426     1  0.0000000  0.6508444  3
   3424   3422   3425   3427     1  0.0000000  0.6508444  3
   3424   3422   3431   3432     1  0.0000000  0.6508444  3
   3424   3422   3431   3433     1  0.0000000  0.6508444  3
   3424   3422   3431   3435     1  0.0000000  0.6508444  3
   3425   3422   3431   3432     1  0.0000000  0.6508444  3
   3425   3422   3431   3433     1  0.0000000  0.6508444  3
   3425   3422   3431   3435     1  0.0000000  0.6508444  3
   3426   3425   3428   3434     1  0.0000000  1.0460000  1
   3426   3425   3428   3434     1  0.0000000  0.0000000  3
   3426   3425   3428   3429     1  0.0000000  0.6508444  3
   3426   3425   3428   3430     1  0.0000000  0.6508444  3
   3426   3425   3422   3431     1  0.0000000  0.6508444  3
   3427   3425   3428   3434     1  0.0000000  1.0460000  1
   3427   3425   3428   3434     1  0.0000000  0.0000000  3
   3427   3425   3428   3429     1  0.0000000  0.6508444  3
   3427   3425   3428   3430     1  0.0000000  0.6508444  3
   3427   3425   3422   3431     1  0.0000000  0.6508444  3
   3436   3439   3442   3443     1  0.0000000  0.6508444  3
   3436   3439   3442   3444     1  0.0000000  0.6508444  3
   3437   3436   3439   3442     1  0.0000000  0.6508444  3
   3437   3436   3439   3440     1  0.0000000  0.6508444  3
   3437   3436   3439   3441     1  0.0000000  0.6508444  3
   3437   3436   3445   3446     1  0.0000000  0.6508444  3
   3437   3436   3445   3447     1  0.0000000  0.6508444  3
   3437   3436   3445   3449     1  0.0000000  0.6508444  3
   3438   3436   3439   3442     1  0.0000000  0.6508444  3
   3438   3436   3439   3440     1  0.0000000  0.6508444  3
   3438   3436   3439   3441     1  0.0000000  0.6508444  3
   3438   3436   3445   3446     1  0.0000000  0.6508444  3
   3438   3436   3445   3447     1  0.0000000  0.6508444  3
   3438   3436   3445   3449     1  0.0000000  0.6508444  3
   3439   3436   3445   3446     1  0.0000000  0.6508444  3
   3439   3436   3445   3447     1  0.0000000  0.6508444  3
   3439   3436   3445   3449     1  0.0000000  0.6508444  3
   3440   3439   3436   3445     1  0.0000000  0.6508444  3
   3440   3439   3442   3448     1  0.0000000  1.0460000  1
   3440   3439   3442   3448     1  0.0000000  0.0000000  3
   3440   3439   3442   3443     1  0.0000000  0.6508444  3
   3440   3439   3442   3444     1  0.0000000  0.6508444  3
   3441   3439   3436   3445     1  0.0000000  0.6508444  3
   3441   3439   3442   3448     1  0.0000000  1.0460000  1
   3441   3439   3442   3448     1  0.0000000  0.0000000  3
   3441   3439   3442   3443     1  0.0000000  0.6508444  3
   3441   3439   3442   3444     1  0.0000000  0.6508444  3
   3450   3453   3456   3457     1  0.0000000  0.6508444  3
   3450   3453   3456   3458     1  0.0000000  0.6508444  3
   3451   3450   3453   3456     1  0.0000000  0.6508444  3
   3451   3450   3453   3454     1  0.0000000  0.6508444  3
   3451   3450   3453   3455     1  0.0000000  0.6508444  3
   3451   3450   3459   3460     1  0.0000000  0.6508444  3
   3451   3450   3459   3461     1  0.0000000  0.6508444  3
   3451   3450   3459   3463     1  0.0000000  0.6508444  3
   3452   3450   3453   3456     1  0.0000000  0.6508444  3
   3452   3450   3453   3454     1  0.0000000  0.6508444  3
   3452   3450   3453   3455     1  0.0000000  0.6508444  3
   3452   3450   3459   3460     1  0.0000000  0.6508444  3
   3452   3450   3459   3461     1  0.0000000  0.6508444  3
   3452   3450   3459   3463     1  0.0000000  0.6508444  3
   3453   3450   3459   3460     1  0.0000000  0.6508444  3
   3453   3450   3459   3461     1  0.0000000  0.6508444  3
   3453   3450   3459   3463     1  0.0000000  0.6508444  3
   3454   3453   3456   3462     1  0.0000000  1.0460000  1
   3454   3453   3456   3462     1  0.0000000  0.0000000  3
   3454   3453   3456   3457     1  0.0000000  0.6508444  3
   3454   3453   3456   3458     1  0.0000000  0.6508444  3
   3454   3453   3450   3459     1  0.0000000  0.6508444  3
   3455   3453   3456   3462     1  0.0000000  1.0460000  1
   3455   3453   3456   3462     1  0.0000000  0.0000000  3
   3455   3453   3456   3457     1  0.0000000  0.6508444  3
   3455   3453   3456   3458     1  0.0000000  0.6508444  3
   3455   3453   3450   3459     1  0.0000000  0.6508444  3
   3464   3467   3470   3471     1  0.0000000  0.6508444  3
   3464   3467   3470   3472     1  0.0000000  0.6508444  3
   3465   3464   3467   3470     1  0.0000000  0.6508444  3
   3465   3464   3467   3468     1  0.0000000  0.6508444  3
   3465   3464   3467   3469     1  0.0000000  0.6508444  3
   3465   3464   3473   3474     1  0.0000000  0.6508444  3
   3465   3464   3473   3475     1  0.0000000  0.6508444  3
   3465   3464   3473   3477     1  0.0000000  0.6508444  3
   3466   3464   3467   3470     1  0.0000000  0.6508444  3
   3466   3464   3467   3468     1  0.0000000  0.6508444  3
   3466   3464   3467   3469     1  0.0000000  0.6508444  3
   3466   3464   3473   3474     1  0.0000000  0.6508444  3
   3466   3464   3473   3475     1  0.0000000  0.6508444  3
   3466   3464   3473   3477     1  0.0000000  0.6508444  3
   3467   3464   3473   3474     1  0.0000000  0.6508444  3
   3467   3464   3473   3475     1  0.0000000  0.6508444  3
   3467   3464   3473   3477     1  0.0000000  0.6508444  3
   3468   3467   3464   3473     1  0.0000000  0.6508444  3
   3468   3467   3470   3476     1  0.0000000  1.0460000  1
   3468   3467   3470   3476     1  0.0000000  0.0000000  3
   3468   3467   3470   3471     1  0.0000000  0.6508444  3
   3468   3467   3470   3472     1  0.0000000  0.6508444  3
   3469   3467   3464   3473     1  0.0000000  0.6508444  3
   3469   3467   3470   3476     1  0.0000000  1.0460000  1
   3469   3467   3470   3476     1  0.0000000  0.0000000  3
   3469   3467   3470   3471     1  0.0000000  0.6508444  3
   3469   3467   3470   3472     1  0.0000000  0.6508444  3
   3478   3481   3484   3485     1  0.0000000  0.6508444  3
   3478   3481   3484   3486     1  0.0000000  0.6508444  3
   3479   3478   3481   3484     1  0.0000000  0.6508444  3
   3479   3478   3481   3482     1  0.0000000  0.6508444  3
   3479   3478   3481   3483     1  0.0000000  0.6508444  3
   3479   3478   3487   3488     1  0.0000000  0.6508444  3
   3479   3478   3487   3489     1  0.0000000  0.6508444  3
   3479   3478   3487   3491     1  0.0000000  0.6508444  3
   3480   3478   3481   3484     1  0.0000000  0.6508444  3
   3480   3478   3481   3482     1  0.0000000  0.6508444  3
   3480   3478   3481   3483     1  0.0000000  0.6508444  3
   3480   3478   3487   3488     1  0.0000000  0.6508444  3
   3480   3478   3487   3489     1  0.0000000  0.6508444  3
   3480   3478   3487   3491     1  0.0000000  0.6508444  3
   3481   3478   3487   3488     1  0.0000000  0.6508444  3
   3481   3478   3487   3489     1  0.0000000  0.6508444  3
   3481   3478   3487   3491     1  0.0000000  0.6508444  3
   3482   3481   3484   3490     1  0.0000000  1.0460000  1
   3482   3481   3484   3490     1  0.0000000  0.0000000  3
   3482   3481   3484   3485     1  0.0000000  0.6508444  3
   3482   3481   3484   3486     1  0.0000000  0.6508444  3
   3482   3481   3478   3487     1  0.0000000  0.6508444  3
   3483   3481   3484   3490     1  0.0000000  1.0460000  1
   3483   3481   3484   3490     1  0.0000000  0.0000000  3
   3483   3481   3484   3485     1  0.0000000  0.6508444  3
   3483   3481   3484   3486     1  0.0000000  0.6508444  3
   3483   3481   3478   3487     1  0.0000000  0.6508444  3
   3492   3495   3498   3499     1  0.0000000  0.6508444  3
   3492   3495   3498   3500     1  0.0000000  0.6508444  3
   3493   3492   3495   3498     1  0.0000000  0.6508444  3
   3493   3492   3495   3496     1  0.0000000  0.6508444  3
   3493   3492   3495   3497     1  0.0000000  0.6508444  3
   3493   3492   3501   3502     1  0.0000000  0.6508444  3
   3493   3492   3501   3503     1  0.0000000  0.6508444  3
   3493   3492   3501   3505     1  0.0000000  0.6508444  3
   3494   3492   3495   3498     1  0.0000000  0.6508444  3
   3494   3492   3495   3496     1  0.0000000  0.6508444  3
   3494   3492   3495   3497     1  0.0000000  0.6508444  3
   3494   3492   3501   3502     1  0.0000000  0.6508444  3
   3494   3492   3501   3503     1  0.0000000  0.6508444  3
   3494   3492   3501   3505     1  0.0000000  0.6508444  3
   3495   3492   3501   3502     1  0.0000000  0.6508444  3
   3495   3492   3501   3503     1  0.0000000  0.6508444  3
   3495   3492   3501   3505     1  0.0000000  0.6508444  3
   3496   3495   3492   3501     1  0.0000000  0.6508444  3
   3496   3495   3498   3504     1  0.0000000  1.0460000  1
   3496   3495   3498   3504     1  0.0000000  0.0000000  3
   3496   3495   3498   3499     1  0.0000000  0.6508444  3
   3496   3495   3498   3500     1  0.0000000  0.6508444  3
   3497   3495   3492   3501     1  0.0000000  0.6508444  3
   3497   3495   3498   3504     1  0.0000000  1.0460000  1
   3497   3495   3498   3504     1  0.0000000  0.0000000  3
   3497   3495   3498   3499     1  0.0000000  0.6508444  3
   3497   3495   3498   3500     1  0.0000000  0.6508444  3
   3506   3509   3512   3513     1  0.0000000  0.6508444  3
   3506   3509   3512   3514     1  0.0000000  0.6508444  3
   3507   3506   3509   3512     1  0.0000000  0.6508444  3
   3507   3506   3509   3510     1  0.0000000  0.6508444  3
   3507   3506   3509   3511     1  0.0000000  0.6508444  3
   3507   3506   3515   3516     1  0.0000000  0.6508444  3
   3507   3506   3515   3517     1  0.0000000  0.6508444  3
   3507   3506   3515   3519     1  0.0000000  0.6508444  3
   3508   3506   3509   3512     1  0.0000000  0.6508444  3
   3508   3506   3509   3510     1  0.0000000  0.6508444  3
   3508   3506   3509   3511     1  0.0000000  0.6508444  3
   3508   3506   3515   3516     1  0.0000000  0.6508444  3
   3508   3506   3515   3517     1  0.0000000  0.6508444  3
   3508   3506   3515   3519     1  0.0000000  0.6508444  3
   3509   3506   3515   3516     1  0.0000000  0.6508444  3
   3509   3506   3515   3517     1  0.0000000  0.6508444  3
   3509   3506   3515   3519     1  0.0000000  0.6508444  3
   3510   3509   3512   3518     1  0.0000000  1.0460000  1
   3510   3509   3512   3518     1  0.0000000  0.0000000  3
   3510   3509   3512   3513     1  0.0000000  0.6508444  3
   3510   3509   3512   3514     1  0.0000000  0.6508444  3
   3510   3509   3506   3515     1  0.0000000  0.6508444  3
   3511   3509   3512   3518     1  0.0000000  1.0460000  1
   3511   3509   3512   3518     1  0.0000000  0.0000000  3
   3511   3509   3512   3513     1  0.0000000  0.6508444  3
   3511   3509   3512   3514     1  0.0000000  0.6508444  3
   3511   3509   3506   3515     1  0.0000000  0.6508444  3
   3520   3523   3526   3527     1  0.0000000  0.6508444  3
   3520   3523   3526   3528     1  0.0000000  0.6508444  3
   3521   3520   3523   3526     1  0.0000000  0.6508444  3
   3521   3520   3523   3524     1  0.0000000  0.6508444  3
   3521   3520   3523   3525     1  0.0000000  0.6508444  3
   3521   3520   3529   3530     1  0.0000000  0.6508444  3
   3521   3520   3529   3531     1  0.0000000  0.6508444  3
   3521   3520   3529   3533     1  0.0000000  0.6508444  3
   3522   3520   3523   3526     1  0.0000000  0.6508444  3
   3522   3520   3523   3524     1  0.0000000  0.6508444  3
   3522   3520   3523   3525     1  0.0000000  0.6508444  3
   3522   3520   3529   3530     1  0.0000000  0.6508444  3
   3522   3520   3529   3531     1  0.0000000  0.6508444  3
   3522   3520   3529   3533     1  0.0000000  0.6508444  3
   3523   3520   3529   3530     1  0.0000000  0.6508444  3
   3523   3520   3529   3531     1  0.0000000  0.6508444  3
   3523   3520   3529   3533     1  0.0000000  0.6508444  3
   3524   3523   3520   3529     1  0.0000000  0.6508444  3
   3524   3523   3526   3532     1  0.0000000  1.0460000  1
   3524   3523   3526   3532     1  0.0000000  0.0000000  3
   3524   3523   3526   3527     1  0.0000000  0.6508444  3
   3524   3523   3526   3528     1  0.0000000  0.6508444  3
   3525   3523   3520   3529     1  0.0000000  0.6508444  3
   3525   3523   3526   3532     1  0.0000000  1.0460000  1
   3525   3523   3526   3532     1  0.0000000  0.0000000  3
   3525   3523   3526   3527     1  0.0000000  0.6508444  3
   3525   3523   3526   3528     1  0.0000000  0.6508444  3
   3534   3537   3540   3541     1  0.0000000  0.6508444  3
   3534   3537   3540   3542     1  0.0000000  0.6508444  3
   3535   3534   3537   3540     1  0.0000000  0.6508444  3
   3535   3534   3537   3538     1  0.0000000  0.6508444  3
   3535   3534   3537   3539     1  0.0000000  0.6508444  3
   3535   3534   3543   3544     1  0.0000000  0.6508444  3
   3535   3534   3543   3545     1  0.0000000  0.6508444  3
   3535   3534   3543   3547     1  0.0000000  0.6508444  3
   3536   3534   3537   3540     1  0.0000000  0.6508444  3
   3536   3534   3537   3538     1  0.0000000  0.6508444  3
   3536   3534   3537   3539     1  0.0000000  0.6508444  3
   3536   3534   3543   3544     1  0.0000000  0.6508444  3
   3536   3534   3543   3545     1  0.0000000  0.6508444  3
   3536   3534   3543   3547     1  0.0000000  0.6508444  3
   3537   3534   3543   3544     1  0.0000000  0.6508444  3
   3537   3534   3543   3545     1  0.0000000  0.6508444  3
   3537   3534   3543   3547     1  0.0000000  0.6508444  3
   3538   3537   3540   3546     1  0.0000000  1.0460000  1
   3538   3537   3540   3546     1  0.0000000  0.0000000  3
   3538   3537   3540   3541     1  0.0000000  0.6508444  3
   3538   3537   3540   3542     1  0.0000000  0.6508444  3
   3538   3537   3534   3543     1  0.0000000  0.6508444  3
   3539   3537   3540   3546     1  0.0000000  1.0460000  1
   3539   3537   3540   3546     1  0.0000000  0.0000000  3
   3539   3537   3540   3541     1  0.0000000  0.6508444  3
   3539   3537   3540   3542     1  0.0000000  0.6508444  3
   3539   3537   3534   3543     1  0.0000000  0.6508444  3
   3548   3551   3554   3555     1  0.0000000  0.6508444  3
   3548   3551   3554   3556     1  0.0000000  0.6508444  3
   3549   3548   3551   3554     1  0.0000000  0.6508444  3
   3549   3548   3551   3552     1  0.0000000  0.6508444  3
   3549   3548   3551   3553     1  0.0000000  0.6508444  3
   3549   3548   3557   3558     1  0.0000000  0.6508444  3
   3549   3548   3557   3559     1  0.0000000  0.6508444  3
   3549   3548   3557   3561     1  0.0000000  0.6508444  3
   3550   3548   3551   3554     1  0.0000000  0.6508444  3
   3550   3548   3551   3552     1  0.0000000  0.6508444  3
   3550   3548   3551   3553     1  0.0000000  0.6508444  3
   3550   3548   3557   3558     1  0.0000000  0.6508444  3
   3550   3548   3557   3559     1  0.0000000  0.6508444  3
   3550   3548   3557   3561     1  0.0000000  0.6508444  3
   3551   3548   3557   3558     1  0.0000000  0.6508444  3
   3551   3548   3557   3559     1  0.0000000  0.6508444  3
   3551   3548   3557   3561     1  0.0000000  0.6508444  3
   3552   3551   3548   3557     1  0.0000000  0.6508444  3
   3552   3551   3554   3560     1  0.0000000  1.0460000  1
   3552   3551   3554   3560     1  0.0000000  0.0000000  3
   3552   3551   3554   3555     1  0.0000000  0.6508444  3
   3552   3551   3554   3556     1  0.0000000  0.6508444  3
   3553   3551   3548   3557     1  0.0000000  0.6508444  3
   3553   3551   3554   3560     1  0.0000000  1.0460000  1
   3553   3551   3554   3560     1  0.0000000  0.0000000  3
   3553   3551   3554   3555     1  0.0000000  0.6508444  3
   3553   3551   3554   3556     1  0.0000000  0.6508444  3
   3562   3565   3568   3569     1  0.0000000  0.6508444  3
   3562   3565   3568   3570     1  0.0000000  0.6508444  3
   3563   3562   3565   3568     1  0.0000000  0.6508444  3
   3563   3562   3565   3566     1  0.0000000  0.6508444  3
   3563   3562   3565   3567     1  0.0000000  0.6508444  3
   3563   3562   3571   3572     1  0.0000000  0.6508444  3
   3563   3562   3571   3573     1  0.0000000  0.6508444  3
   3563   3562   3571   3575     1  0.0000000  0.6508444  3
   3564   3562   3565   3568     1  0.0000000  0.6508444  3
   3564   3562   3565   3566     1  0.0000000  0.6508444  3
   3564   3562   3565   3567     1  0.0000000  0.6508444  3
   3564   3562   3571   3572     1  0.0000000  0.6508444  3
   3564   3562   3571   3573     1  0.0000000  0.6508444  3
   3564   3562   3571   3575     1  0.0000000  0.6508444  3
   3565   3562   3571   3572     1  0.0000000  0.6508444  3
   3565   3562   3571   3573     1  0.0000000  0.6508444  3
   3565   3562   3571   3575     1  0.0000000  0.6508444  3
   3566   3565   3568   3574     1  0.0000000  1.0460000  1
   3566   3565   3568   3574     1  0.0000000  0.0000000  3
   3566   3565   3568   3569     1  0.0000000  0.6508444  3
   3566   3565   3568   3570     1  0.0000000  0.6508444  3
   3566   3565   3562   3571     1  0.0000000  0.6508444  3
   3567   3565   3568   3574     1  0.0000000  1.0460000  1
   3567   3565   3568   3574     1  0.0000000  0.0000000  3
   3567   3565   3568   3569     1  0.0000000  0.6508444  3
   3567   3565   3568   3570     1  0.0000000  0.6508444  3
   3567   3565   3562   3571     1  0.0000000  0.6508444  3
   3576   3579   3582   3583     1  0.0000000  0.6508444  3
   3576   3579   3582   3584     1  0.0000000  0.6508444  3
   3577   3576   3579   3582     1  0.0000000  0.6508444  3
   3577   3576   3579   3580     1  0.0000000  0.6508444  3
   3577   3576   3579   3581     1  0.0000000  0.6508444  3
   3577   3576   3585   3586     1  0.0000000  0.6508444  3
   3577   3576   3585   3587     1  0.0000000  0.6508444  3
   3577   3576   3585   3589     1  0.0000000  0.6508444  3
   3578   3576   3579   3582     1  0.0000000  0.6508444  3
   3578   3576   3579   3580     1  0.0000000  0.6508444  3
   3578   3576   3579   3581     1  0.0000000  0.6508444  3
   3578   3576   3585   3586     1  0.0000000  0.6508444  3
   3578   3576   3585   3587     1  0.0000000  0.6508444  3
   3578   3576   3585   3589     1  0.0000000  0.6508444  3
   3579   3576   3585   3586     1  0.0000000  0.6508444  3
   3579   3576   3585   3587     1  0.0000000  0.6508444  3
   3579   3576   3585   3589     1  0.0000000  0.6508444  3
   3580   3579   3576   3585     1  0.0000000  0.6508444  3
   3580   3579   3582   3588     1  0.0000000  1.0460000  1
   3580   3579   3582   3588     1  0.0000000  0.0000000  3
   3580   3579   3582   3583     1  0.0000000  0.6508444  3
   3580   3579   3582   3584     1  0.0000000  0.6508444  3
   3581   3579   3576   3585     1  0.0000000  0.6508444  3
   3581   3579   3582   3588     1  0.0000000  1.0460000  1
   3581   3579   3582   3588     1  0.0000000  0.0000000  3
   3581   3579   3582   3583     1  0.0000000  0.6508444  3
   3581   3579   3582   3584     1  0.0000000  0.6508444  3
   3590   3593   3596   3597     1  0.0000000  0.6508444  3
   3590   3593   3596   3598     1  0.0000000  0.6508444  3
   3591   3590   3593   3596     1  0.0000000  0.6508444  3
   3591   3590   3593   3594     1  0.0000000  0.6508444  3
   3591   3590   3593   3595     1  0.0000000  0.6508444  3
   3591   3590   3599   3600     1  0.0000000  0.6508444  3
   3591   3590   3599   3601     1  0.0000000  0.6508444  3
   3591   3590   3599   3603     1  0.0000000  0.6508444  3
   3592   3590   3593   3596     1  0.0000000  0.6508444  3
   3592   3590   3593   3594     1  0.0000000  0.6508444  3
   3592   3590   3593   3595     1  0.0000000  0.6508444  3
   3592   3590   3599   3600     1  0.0000000  0.6508444  3
   3592   3590   3599   3601     1  0.0000000  0.6508444  3
   3592   3590   3599   3603     1  0.0000000  0.6508444  3
   3593   3590   3599   3600     1  0.0000000  0.6508444  3
   3593   3590   3599   3601     1  0.0000000  0.6508444  3
   3593   3590   3599   3603     1  0.0000000  0.6508444  3
   3594   3593   3596   3602     1  0.0000000  1.0460000  1
   3594   3593   3596   3602     1  0.0000000  0.0000000  3
   3594   3593   3596   3597     1  0.0000000  0.6508444  3
   3594   3593   3596   3598     1  0.0000000  0.6508444  3
   3594   3593   3590   3599     1  0.0000000  0.6508444  3
   3595   3593   3596   3602     1  0.0000000  1.0460000  1
   3595   3593   3596   3602     1  0.0000000  0.0000000  3
   3595   3593   3596   3597     1  0.0000000  0.6508444  3
   3595   3593   3596   3598     1  0.0000000  0.6508444  3
   3595   3593   3590   3599     1  0.0000000  0.6508444  3
   3604   3607   3610   3611     1  0.0000000  0.6508444  3
   3604   3607   3610   3612     1  0.0000000  0.6508444  3
   3605   3604   3607   3610     1  0.0000000  0.6508444  3
   3605   3604   3607   3608     1  0.0000000  0.6508444  3
   3605   3604   3607   3609     1  0.0000000  0.6508444  3
   3605   3604   3613   3614     1  0.0000000  0.6508444  3
   3605   3604   3613   3615     1  0.0000000  0.6508444  3
   3605   3604   3613   3617     1  0.0000000  0.6508444  3
   3606   3604   3607   3610     1  0.0000000  0.6508444  3
   3606   3604   3607   3608     1  0.0000000  0.6508444  3
   3606   3604   3607   3609     1  0.0000000  0.6508444  3
   3606   3604   3613   3614     1  0.0000000  0.6508444  3
   3606   3604   3613   3615     1  0.0000000  0.6508444  3
   3606   3604   3613   3617     1  0.0000000  0.6508444  3
   3607   3604   3613   3614     1  0.0000000  0.6508444  3
   3607   3604   3613   3615     1  0.0000000  0.6508444  3
   3607   3604   3613   3617     1  0.0000000  0.6508444  3
   3608   3607   3604   3613     1  0.0000000  0.6508444  3
   3608   3607   3610   3616     1  0.0000000  1.0460000  1
   3608   3607   3610   3616     1  0.0000000  0.0000000  3
   3608   3607   3610   3611     1  0.0000000  0.6508444  3
   3608   3607   3610   3612     1  0.0000000  0.6508444  3
   3609   3607   3604   3613     1  0.0000000  0.6508444  3
   3609   3607   3610   3616     1  0.0000000  1.0460000  1
   3609   3607   3610   3616     1  0.0000000  0.0000000  3
   3609   3607   3610   3611     1  0.0000000  0.6508444  3
   3609   3607   3610   3612     1  0.0000000  0.6508444  3
   3618   3621   3624   3625     1  0.0000000  0.6508444  3
   3618   3621   3624   3626     1  0.0000000  0.6508444  3
   3619   3618   3621   3624     1  0.0000000  0.6508444  3
   3619   3618   3621   3622     1  0.0000000  0.6508444  3
   3619   3618   3621   3623     1  0.0000000  0.6508444  3
   3619   3618   3627   3628     1  0.0000000  0.6508444  3
   3619   3618   3627   3629     1  0.0000000  0.6508444  3
   3619   3618   3627   3631     1  0.0000000  0.6508444  3
   3620   3618   3621   3624     1  0.0000000  0.6508444  3
   3620   3618   3621   3622     1  0.0000000  0.6508444  3
   3620   3618   3621   3623     1  0.0000000  0.6508444  3
   3620   3618   3627   3628     1  0.0000000  0.6508444  3
   3620   3618   3627   3629     1  0.0000000  0.6508444  3
   3620   3618   3627   3631     1  0.0000000  0.6508444  3
   3621   3618   3627   3628     1  0.0000000  0.6508444  3
   3621   3618   3627   3629     1  0.0000000  0.6508444  3
   3621   3618   3627   3631     1  0.0000000  0.6508444  3
   3622   3621   3624   3630     1  0.0000000  1.0460000  1
   3622   3621   3624   3630     1  0.0000000  0.0000000  3
   3622   3621   3624   3625     1  0.0000000  0.6508444  3
   3622   3621   3624   3626     1  0.0000000  0.6508444  3
   3622   3621   3618   3627     1  0.0000000  0.6508444  3
   3623   3621   3624   3630     1  0.0000000  1.0460000  1
   3623   3621   3624   3630     1  0.0000000  0.0000000  3
   3623   3621   3624   3625     1  0.0000000  0.6508444  3
   3623   3621   3624   3626     1  0.0000000  0.6508444  3
   3623   3621   3618   3627     1  0.0000000  0.6508444  3
   3632   3635   3638   3639     1  0.0000000  0.6508444  3
   3632   3635   3638   3640     1  0.0000000  0.6508444  3
   3633   3632   3635   3638     1  0.0000000  0.6508444  3
   3633   3632   3635   3636     1  0.0000000  0.6508444  3
   3633   3632   3635   3637     1  0.0000000  0.6508444  3
   3633   3632   3641   3642     1  0.0000000  0.6508444  3
   3633   3632   3641   3643     1  0.0000000  0.6508444  3
   3633   3632   3641   3645     1  0.0000000  0.6508444  3
   3634   3632   3635   3638     1  0.0000000  0.6508444  3
   3634   3632   3635   3636     1  0.0000000  0.6508444  3
   3634   3632   3635   3637     1  0.0000000  0.6508444  3
   3634   3632   3641   3642     1  0.0000000  0.6508444  3
   3634   3632   3641   3643     1  0.0000000  0.6508444  3
   3634   3632   3641   3645     1  0.0000000  0.6508444  3
   3635   3632   3641   3642     1  0.0000000  0.6508444  3
   3635   3632   3641   3643     1  0.0000000  0.6508444  3
   3635   3632   3641   3645     1  0.0000000  0.6508444  3
   3636   3635   3632   3641     1  0.0000000  0.6508444  3
   3636   3635   3638   3644     1  0.0000000  1.0460000  1
   3636   3635   3638   3644     1  0.0000000  0.0000000  3
   3636   3635   3638   3639     1  0.0000000  0.6508444  3
   3636   3635   3638   3640     1  0.0000000  0.6508444  3
   3637   3635   3632   3641     1  0.0000000  0.6508444  3
   3637   3635   3638   3644     1  0.0000000  1.0460000  1
   3637   3635   3638   3644     1  0.0000000  0.0000000  3
   3637   3635   3638   3639     1  0.0000000  0.6508444  3
   3637   3635   3638   3640     1  0.0000000  0.6508444  3
   3646   3649   3652   3653     1  0.0000000  0.6508444  3
   3646   3649   3652   3654     1  0.0000000  0.6508444  3
   3647   3646   3649   3652     1  0.0000000  0.6508444  3
   3647   3646   3649   3650     1  0.0000000  0.6508444  3
   3647   3646   3649   3651     1  0.0000000  0.6508444  3
   3647   3646   3655   3656     1  0.0000000  0.6508444  3
   3647   3646   3655   3657     1  0.0000000  0.6508444  3
   3647   3646   3655   3659     1  0.0000000  0.6508444  3
   3648   3646   3649   3652     1  0.0000000  0.6508444  3
   3648   3646   3649   3650     1  0.0000000  0.6508444  3
   3648   3646   3649   3651     1  0.0000000  0.6508444  3
   3648   3646   3655   3656     1  0.0000000  0.6508444  3
   3648   3646   3655   3657     1  0.0000000  0.6508444  3
   3648   3646   3655   3659     1  0.0000000  0.6508444  3
   3649   3646   3655   3656     1  0.0000000  0.6508444  3
   3649   3646   3655   3657     1  0.0000000  0.6508444  3
   3649   3646   3655   3659     1  0.0000000  0.6508444  3
   3650   3649   3652   3658     1  0.0000000  1.0460000  1
   3650   3649   3652   3658     1  0.0000000  0.0000000  3
   3650   3649   3652   3653     1  0.0000000  0.6508444  3
   3650   3649   3652   3654     1  0.0000000  0.6508444  3
   3650   3649   3646   3655     1  0.0000000  0.6508444  3
   3651   3649   3652   3658     1  0.0000000  1.0460000  1
   3651   3649   3652   3658     1  0.0000000  0.0000000  3
   3651   3649   3652   3653     1  0.0000000  0.6508444  3
   3651   3649   3652   3654     1  0.0000000  0.6508444  3
   3651   3649   3646   3655     1  0.0000000  0.6508444  3
   3660   3663   3666   3667     1  0.0000000  0.6508444  3
   3660   3663   3666   3668     1  0.0000000  0.6508444  3
   3661   3660   3663   3666     1  0.0000000  0.6508444  3
   3661   3660   3663   3664     1  0.0000000  0.6508444  3
   3661   3660   3663   3665     1  0.0000000  0.6508444  3
   3661   3660   3669   3670     1  0.0000000  0.6508444  3
   3661   3660   3669   3671     1  0.0000000  0.6508444  3
   3661   3660   3669   3673     1  0.0000000  0.6508444  3
   3662   3660   3663   3666     1  0.0000000  0.6508444  3
   3662   3660   3663   3664     1  0.0000000  0.6508444  3
   3662   3660   3663   3665     1  0.0000000  0.6508444  3
   3662   3660   3669   3670     1  0.0000000  0.6508444  3
   3662   3660   3669   3671     1  0.0000000  0.6508444  3
   3662   3660   3669   3673     1  0.0000000  0.6508444  3
   3663   3660   3669   3670     1  0.0000000  0.6508444  3
   3663   3660   3669   3671     1  0.0000000  0.6508444  3
   3663   3660   3669   3673     1  0.0000000  0.6508444  3
   3664   3663   3660   3669     1  0.0000000  0.6508444  3
   3664   3663   3666   3672     1  0.0000000  1.0460000  1
   3664   3663   3666   3672     1  0.0000000  0.0000000  3
   3664   3663   3666   3667     1  0.0000000  0.6508444  3
   3664   3663   3666   3668     1  0.0000000  0.6508444  3
   3665   3663   3660   3669     1  0.0000000  0.6508444  3
   3665   3663   3666   3672     1  0.0000000  1.0460000  1
   3665   3663   3666   3672     1  0.0000000  0.0000000  3
   3665   3663   3666   3667     1  0.0000000  0.6508444  3
   3665   3663   3666   3668     1  0.0000000  0.6508444  3
   3674   3677   3680   3681     1  0.0000000  0.6508444  3
   3674   3677   3680   3682     1  0.0000000  0.6508444  3
   3675   3674   3677   3680     1  0.0000000  0.6508444  3
   3675   3674   3677   3678     1  0.0000000  0.6508444  3
   3675   3674   3677   3679     1  0.0000000  0.6508444  3
   3675   3674   3683   3684     1  0.0000000  0.6508444  3
   3675   3674   3683   3685     1  0.0000000  0.6508444  3
   3675   3674   3683   3687     1  0.0000000  0.6508444  3
   3676   3674   3677   3680     1  0.0000000  0.6508444  3
   3676   3674   3677   3678     1  0.0000000  0.6508444  3
   3676   3674   3677   3679     1  0.0000000  0.6508444  3
   3676   3674   3683   3684     1  0.0000000  0.6508444  3
   3676   3674   3683   3685     1  0.0000000  0.6508444  3
   3676   3674   3683   3687     1  0.0000000  0.6508444  3
   3677   3674   3683   3684     1  0.0000000  0.6508444  3
   3677   3674   3683   3685     1  0.0000000  0.6508444  3
   3677   3674   3683   3687     1  0.0000000  0.6508444  3
   3678   3677   3680   3686     1  0.0000000  1.0460000  1
   3678   3677   3680   3686     1  0.0000000  0.0000000  3
   3678   3677   3680   3681     1  0.0000000  0.6508444  3
   3678   3677   3680   3682     1  0.0000000  0.6508444  3
   3678   3677   3674   3683     1  0.0000000  0.6508444  3
   3679   3677   3680   3686     1  0.0000000  1.0460000  1
   3679   3677   3680   3686     1  0.0000000  0.0000000  3
   3679   3677   3680   3681     1  0.0000000  0.6508444  3
   3679   3677   3680   3682     1  0.0000000  0.6508444  3
   3679   3677   3674   3683     1  0.0000000  0.6508444  3
   3688   3691   3694   3695     1  0.0000000  0.6508444  3
   3688   3691   3694   3696     1  0.0000000  0.6508444  3
   3689   3688   3691   3694     1  0.0000000  0.6508444  3
   3689   3688   3691   3692     1  0.0000000  0.6508444  3
   3689   3688   3691   3693     1  0.0000000  0.6508444  3
   3689   3688   3697   3698     1  0.0000000  0.6508444  3
   3689   3688   3697   3699     1  0.0000000  0.6508444  3
   3689   3688   3697   3701     1  0.0000000  0.6508444  3
   3690   3688   3691   3694     1  0.0000000  0.6508444  3
   3690   3688   3691   3692     1  0.0000000  0.6508444  3
   3690   3688   3691   3693     1  0.0000000  0.6508444  3
   3690   3688   3697   3698     1  0.0000000  0.6508444  3
   3690   3688   3697   3699     1  0.0000000  0.6508444  3
   3690   3688   3697   3701     1  0.0000000  0.6508444  3
   3691   3688   3697   3698     1  0.0000000  0.6508444  3
   3691   3688   3697   3699     1  0.0000000  0.6508444  3
   3691   3688   3697   3701     1  0.0000000  0.6508444  3
   3692   3691   3688   3697     1  0.0000000  0.6508444  3
   3692   3691   3694   3700     1  0.0000000  1.0460000  1
   3692   3691   3694   3700     1  0.0000000  0.0000000  3
   3692   3691   3694   3695     1  0.0000000  0.6508444  3
   3692   3691   3694   3696     1  0.0000000  0.6508444  3
   3693   3691   3688   3697     1  0.0000000  0.6508444  3
   3693   3691   3694   3700     1  0.0000000  1.0460000  1
   3693   3691   3694   3700     1  0.0000000  0.0000000  3
   3693   3691   3694   3695     1  0.0000000  0.6508444  3
   3693   3691   3694   3696     1  0.0000000  0.6508444  3
   3702   3705   3708   3709     1  0.0000000  0.6508444  3
   3702   3705   3708   3710     1  0.0000000  0.6508444  3
   3703   3702   3705   3708     1  0.0000000  0.6508444  3
   3703   3702   3705   3706     1  0.0000000  0.6508444  3
   3703   3702   3705   3707     1  0.0000000  0.6508444  3
   3703   3702   3711   3712     1  0.0000000  0.6508444  3
   3703   3702   3711   3713     1  0.0000000  0.6508444  3
   3703   3702   3711   3715     1  0.0000000  0.6508444  3
   3704   3702   3705   3708     1  0.0000000  0.6508444  3
   3704   3702   3705   3706     1  0.0000000  0.6508444  3
   3704   3702   3705   3707     1  0.0000000  0.6508444  3
   3704   3702   3711   3712     1  0.0000000  0.6508444  3
   3704   3702   3711   3713     1  0.0000000  0.6508444  3
   3704   3702   3711   3715     1  0.0000000  0.6508444  3
   3705   3702   3711   3712     1  0.0000000  0.6508444  3
   3705   3702   3711   3713     1  0.0000000  0.6508444  3
   3705   3702   3711   3715     1  0.0000000  0.6508444  3
   3706   3705   3708   3714     1  0.0000000  1.0460000  1
   3706   3705   3708   3714     1  0.0000000  0.0000000  3
   3706   3705   3708   3709     1  0.0000000  0.6508444  3
   3706   3705   3708   3710     1  0.0000000  0.6508444  3
   3706   3705   3702   3711     1  0.0000000  0.6508444  3
   3707   3705   3708   3714     1  0.0000000  1.0460000  1
   3707   3705   3708   3714     1  0.0000000  0.0000000  3
   3707   3705   3708   3709     1  0.0000000  0.6508444  3
   3707   3705   3708   3710     1  0.0000000  0.6508444  3
   3707   3705   3702   3711     1  0.0000000  0.6508444  3
   3716   3719   3722   3723     1  0.0000000  0.6508444  3
   3716   3719   3722   3724     1  0.0000000  0.6508444  3
   3717   3716   3719   3722     1  0.0000000  0.6508444  3
   3717   3716   3719   3720     1  0.0000000  0.6508444  3
   3717   3716   3719   3721     1  0.0000000  0.6508444  3
   3717   3716   3725   3726     1  0.0000000  0.6508444  3
   3717   3716   3725   3727     1  0.0000000  0.6508444  3
   3717   3716   3725   3729     1  0.0000000  0.6508444  3
   3718   3716   3719   3722     1  0.0000000  0.6508444  3
   3718   3716   3719   3720     1  0.0000000  0.6508444  3
   3718   3716   3719   3721     1  0.0000000  0.6508444  3
   3718   3716   3725   3726     1  0.0000000  0.6508444  3
   3718   3716   3725   3727     1  0.0000000  0.6508444  3
   3718   3716   3725   3729     1  0.0000000  0.6508444  3
   3719   3716   3725   3726     1  0.0000000  0.6508444  3
   3719   3716   3725   3727     1  0.0000000  0.6508444  3
   3719   3716   3725   3729     1  0.0000000  0.6508444  3
   3720   3719   3716   3725     1  0.0000000  0.6508444  3
   3720   3719   3722   3728     1  0.0000000  1.0460000  1
   3720   3719   3722   3728     1  0.0000000  0.0000000  3
   3720   3719   3722   3723     1  0.0000000  0.6508444  3
   3720   3719   3722   3724     1  0.0000000  0.6508444  3
   3721   3719   3716   3725     1  0.0000000  0.6508444  3
   3721   3719   3722   3728     1  0.0000000  1.0460000  1
   3721   3719   3722   3728     1  0.0000000  0.0000000  3
   3721   3719   3722   3723     1  0.0000000  0.6508444  3
   3721   3719   3722   3724     1  0.0000000  0.6508444  3
   3730   3733   3736   3737     1  0.0000000  0.6508444  3
   3730   3733   3736   3738     1  0.0000000  0.6508444  3
   3731   3730   3733   3736     1  0.0000000  0.6508444  3
   3731   3730   3733   3734     1  0.0000000  0.6508444  3
   3731   3730   3733   3735     1  0.0000000  0.6508444  3
   3731   3730   3739   3740     1  0.0000000  0.6508444  3
   3731   3730   3739   3741     1  0.0000000  0.6508444  3
   3731   3730   3739   3743     1  0.0000000  0.6508444  3
   3732   3730   3733   3736     1  0.0000000  0.6508444  3
   3732   3730   3733   3734     1  0.0000000  0.6508444  3
   3732   3730   3733   3735     1  0.0000000  0.6508444  3
   3732   3730   3739   3740     1  0.0000000  0.6508444  3
   3732   3730   3739   3741     1  0.0000000  0.6508444  3
   3732   3730   3739   3743     1  0.0000000  0.6508444  3
   3733   3730   3739   3740     1  0.0000000  0.6508444  3
   3733   3730   3739   3741     1  0.0000000  0.6508444  3
   3733   3730   3739   3743     1  0.0000000  0.6508444  3
   3734   3733   3736   3742     1  0.0000000  1.0460000  1
   3734   3733   3736   3742     1  0.0000000  0.0000000  3
   3734   3733   3736   3737     1  0.0000000  0.6508444  3
   3734   3733   3736   3738     1  0.0000000  0.6508444  3
   3734   3733   3730   3739     1  0.0000000  0.6508444  3
   3735   3733   3736   3742     1  0.0000000  1.0460000  1
   3735   3733   3736   3742     1  0.0000000  0.0000000  3
   3735   3733   3736   3737     1  0.0000000  0.6508444  3
   3735   3733   3736   3738     1  0.0000000  0.6508444  3
   3735   3733   3730   3739     1  0.0000000  0.6508444  3
   3744   3747   3750   3751     1  0.0000000  0.6508444  3
   3744   3747   3750   3752     1  0.0000000  0.6508444  3
   3745   3744   3747   3750     1  0.0000000  0.6508444  3
   3745   3744   3747   3748     1  0.0000000  0.6508444  3
   3745   3744   3747   3749     1  0.0000000  0.6508444  3
   3745   3744   3753   3754     1  0.0000000  0.6508444  3
   3745   3744   3753   3755     1  0.0000000  0.6508444  3
   3745   3744   3753   3757     1  0.0000000  0.6508444  3
   3746   3744   3747   3750     1  0.0000000  0.6508444  3
   3746   3744   3747   3748     1  0.0000000  0.6508444  3
   3746   3744   3747   3749     1  0.0000000  0.6508444  3
   3746   3744   3753   3754     1  0.0000000  0.6508444  3
   3746   3744   3753   3755     1  0.0000000  0.6508444  3
   3746   3744   3753   3757     1  0.0000000  0.6508444  3
   3747   3744   3753   3754     1  0.0000000  0.6508444  3
   3747   3744   3753   3755     1  0.0000000  0.6508444  3
   3747   3744   3753   3757     1  0.0000000  0.6508444  3
   3748   3747   3744   3753     1  0.0000000  0.6508444  3
   3748   3747   3750   3756     1  0.0000000  1.0460000  1
   3748   3747   3750   3756     1  0.0000000  0.0000000  3
   3748   3747   3750   3751     1  0.0000000  0.6508444  3
   3748   3747   3750   3752     1  0.0000000  0.6508444  3
   3749   3747   3744   3753     1  0.0000000  0.6508444  3
   3749   3747   3750   3756     1  0.0000000  1.0460000  1
   3749   3747   3750   3756     1  0.0000000  0.0000000  3
   3749   3747   3750   3751     1  0.0000000  0.6508444  3
   3749   3747   3750   3752     1  0.0000000  0.6508444  3
   3758   3761   3764   3765     1  0.0000000  0.6508444  3
   3758   3761   3764   3766     1  0.0000000  0.6508444  3
   3759   3758   3761   3764     1  0.0000000  0.6508444  3
   3759   3758   3761   3762     1  0.0000000  0.6508444  3
   3759   3758   3761   3763     1  0.0000000  0.6508444  3
   3759   3758   3767   3768     1  0.0000000  0.6508444  3
   3759   3758   3767   3769     1  0.0000000  0.6508444  3
   3759   3758   3767   3771     1  0.0000000  0.6508444  3
   3760   3758   3761   3764     1  0.0000000  0.6508444  3
   3760   3758   3761   3762     1  0.0000000  0.6508444  3
   3760   3758   3761   3763     1  0.0000000  0.6508444  3
   3760   3758   3767   3768     1  0.0000000  0.6508444  3
   3760   3758   3767   3769     1  0.0000000  0.6508444  3
   3760   3758   3767   3771     1  0.0000000  0.6508444  3
   3761   3758   3767   3768     1  0.0000000  0.6508444  3
   3761   3758   3767   3769     1  0.0000000  0.6508444  3
   3761   3758   3767   3771     1  0.0000000  0.6508444  3
   3762   3761   3764   3770     1  0.0000000  1.0460000  1
   3762   3761   3764   3770     1  0.0000000  0.0000000  3
   3762   3761   3764   3765     1  0.0000000  0.6508444  3
   3762   3761   3764   3766     1  0.0000000  0.6508444  3
   3762   3761   3758   3767     1  0.0000000  0.6508444  3
   3763   3761   3764   3770     1  0.0000000  1.0460000  1
   3763   3761   3764   3770     1  0.0000000  0.0000000  3
   3763   3761   3764   3765     1  0.0000000  0.6508444  3
   3763   3761   3764   3766     1  0.0000000  0.6508444  3
   3763   3761   3758   3767     1  0.0000000  0.6508444  3
   3772   3775   3778   3779     1  0.0000000  0.6508444  3
   3772   3775   3778   3780     1  0.0000000  0.6508444  3
   3773   3772   3775   3778     1  0.0000000  0.6508444  3
   3773   3772   3775   3776     1  0.0000000  0.6508444  3
   3773   3772   3775   3777     1  0.0000000  0.6508444  3
   3773   3772   3781   3782     1  0.0000000  0.6508444  3
   3773   3772   3781   3783     1  0.0000000  0.6508444  3
   3773   3772   3781   3785     1  0.0000000  0.6508444  3
   3774   3772   3775   3778     1  0.0000000  0.6508444  3
   3774   3772   3775   3776     1  0.0000000  0.6508444  3
   3774   3772   3775   3777     1  0.0000000  0.6508444  3
   3774   3772   3781   3782     1  0.0000000  0.6508444  3
   3774   3772   3781   3783     1  0.0000000  0.6508444  3
   3774   3772   3781   3785     1  0.0000000  0.6508444  3
   3775   3772   3781   3782     1  0.0000000  0.6508444  3
   3775   3772   3781   3783     1  0.0000000  0.6508444  3
   3775   3772   3781   3785     1  0.0000000  0.6508444  3
   3776   3775   3772   3781     1  0.0000000  0.6508444  3
   3776   3775   3778   3784     1  0.0000000  1.0460000  1
   3776   3775   3778   3784     1  0.0000000  0.0000000  3
   3776   3775   3778   3779     1  0.0000000  0.6508444  3
   3776   3775   3778   3780     1  0.0000000  0.6508444  3
   3777   3775   3772   3781     1  0.0000000  0.6508444  3
   3777   3775   3778   3784     1  0.0000000  1.0460000  1
   3777   3775   3778   3784     1  0.0000000  0.0000000  3
   3777   3775   3778   3779     1  0.0000000  0.6508444  3
   3777   3775   3778   3780     1  0.0000000  0.6508444  3
   3786   3789   3792   3793     1  0.0000000  0.6508444  3
   3786   3789   3792   3794     1  0.0000000  0.6508444  3
   3787   3786   3789   3792     1  0.0000000  0.6508444  3
   3787   3786   3789   3790     1  0.0000000  0.6508444  3
   3787   3786   3789   3791     1  0.0000000  0.6508444  3
   3787   3786   3795   3796     1  0.0000000  0.6508444  3
   3787   3786   3795   3797     1  0.0000000  0.6508444  3
   3787   3786   3795   3799     1  0.0000000  0.6508444  3
   3788   3786   3789   3792     1  0.0000000  0.6508444  3
   3788   3786   3789   3790     1  0.0000000  0.6508444  3
   3788   3786   3789   3791     1  0.0000000  0.6508444  3
   3788   3786   3795   3796     1  0.0000000  0.6508444  3
   3788   3786   3795   3797     1  0.0000000  0.6508444  3
   3788   3786   3795   3799     1  0.0000000  0.6508444  3
   3789   3786   3795   3796     1  0.0000000  0.6508444  3
   3789   3786   3795   3797     1  0.0000000  0.6508444  3
   3789   3786   3795   3799     1  0.0000000  0.6508444  3
   3790   3789   3792   3798     1  0.0000000  1.0460000  1
   3790   3789   3792   3798     1  0.0000000  0.0000000  3
   3790   3789   3792   3793     1  0.0000000  0.6508444  3
   3790   3789   3792   3794     1  0.0000000  0.6508444  3
   3790   3789   3786   3795     1  0.0000000  0.6508444  3
   3791   3789   3792   3798     1  0.0000000  1.0460000  1
   3791   3789   3792   3798     1  0.0000000  0.0000000  3
   3791   3789   3792   3793     1  0.0000000  0.6508444  3
   3791   3789   3792   3794     1  0.0000000  0.6508444  3
   3791   3789   3786   3795     1  0.0000000  0.6508444  3
   3800   3803   3806   3807     1  0.0000000  0.6508444  3
   3800   3803   3806   3808     1  0.0000000  0.6508444  3
   3801   3800   3803   3806     1  0.0000000  0.6508444  3
   3801   3800   3803   3804     1  0.0000000  0.6508444  3
   3801   3800   3803   3805     1  0.0000000  0.6508444  3
   3801   3800   3809   3810     1  0.0000000  0.6508444  3
   3801   3800   3809   3811     1  0.0000000  0.6508444  3
   3801   3800   3809   3813     1  0.0000000  0.6508444  3
   3802   3800   3803   3806     1  0.0000000  0.6508444  3
   3802   3800   3803   3804     1  0.0000000  0.6508444  3
   3802   3800   3803   3805     1  0.0000000  0.6508444  3
   3802   3800   3809   3810     1  0.0000000  0.6508444  3
   3802   3800   3809   3811     1  0.0000000  0.6508444  3
   3802   3800   3809   3813     1  0.0000000  0.6508444  3
   3803   3800   3809   3810     1  0.0000000  0.6508444  3
   3803   3800   3809   3811     1  0.0000000  0.6508444  3
   3803   3800   3809   3813     1  0.0000000  0.6508444  3
   3804   3803   3800   3809     1  0.0000000  0.6508444  3
   3804   3803   3806   3812     1  0.0000000  1.0460000  1
   3804   3803   3806   3812     1  0.0000000  0.0000000  3
   3804   3803   3806   3807     1  0.0000000  0.6508444  3
   3804   3803   3806   3808     1  0.0000000  0.6508444  3
   3805   3803   3800   3809     1  0.0000000  0.6508444  3
   3805   3803   3806   3812     1  0.0000000  1.0460000  1
   3805   3803   3806   3812     1  0.0000000  0.0000000  3
   3805   3803   3806   3807     1  0.0000000  0.6508444  3
   3805   3803   3806   3808     1  0.0000000  0.6508444  3
   3814   3817   3820   3821     1  0.0000000  0.6508444  3
   3814   3817   3820   3822     1  0.0000000  0.6508444  3
   3815   3814   3817   3820     1  0.0000000  0.6508444  3
   3815   3814   3817   3818     1  0.0000000  0.6508444  3
   3815   3814   3817   3819     1  0.0000000  0.6508444  3
   3815   3814   3823   3824     1  0.0000000  0.6508444  3
   3815   3814   3823   3825     1  0.0000000  0.6508444  3
   3815   3814   3823   3827     1  0.0000000  0.6508444  3
   3816   3814   3817   3820     1  0.0000000  0.6508444  3
   3816   3814   3817   3818     1  0.0000000  0.6508444  3
   3816   3814   3817   3819     1  0.0000000  0.6508444  3
   3816   3814   3823   3824     1  0.0000000  0.6508444  3
   3816   3814   3823   3825     1  0.0000000  0.6508444  3
   3816   3814   3823   3827     1  0.0000000  0.6508444  3
   3817   3814   3823   3824     1  0.0000000  0.6508444  3
   3817   3814   3823   3825     1  0.0000000  0.6508444  3
   3817   3814   3823   3827     1  0.0000000  0.6508444  3
   3818   3817   3820   3826     1  0.0000000  1.0460000  1
   3818   3817   3820   3826     1  0.0000000  0.0000000  3
   3818   3817   3820   3821     1  0.0000000  0.6508444  3
   3818   3817   3820   3822     1  0.0000000  0.6508444  3
   3818   3817   3814   3823     1  0.0000000  0.6508444  3
   3819   3817   3820   3826     1  0.0000000  1.0460000  1
   3819   3817   3820   3826     1  0.0000000  0.0000000  3
   3819   3817   3820   3821     1  0.0000000  0.6508444  3
   3819   3817   3820   3822     1  0.0000000  0.6508444  3
   3819   3817   3814   3823     1  0.0000000  0.6508444  3
   3828   3831   3834   3835     1  0.0000000  0.6508444  3
   3828   3831   3834   3836     1  0.0000000  0.6508444  3
   3829   3828   3831   3834     1  0.0000000  0.6508444  3
   3829   3828   3831   3832     1  0.0000000  0.6508444  3
   3829   3828   3831   3833     1  0.0000000  0.6508444  3
   3829   3828   3837   3838     1  0.0000000  0.6508444  3
   3829   3828   3837   3839     1  0.0000000  0.6508444  3
   3829   3828   3837   3841     1  0.0000000  0.6508444  3
   3830   3828   3831   3834     1  0.0000000  0.6508444  3
   3830   3828   3831   3832     1  0.0000000  0.6508444  3
   3830   3828   3831   3833     1  0.0000000  0.6508444  3
   3830   3828   3837   3838     1  0.0000000  0.6508444  3
   3830   3828   3837   3839     1  0.0000000  0.6508444  3
   3830   3828   3837   3841     1  0.0000000  0.6508444  3
   3831   3828   3837   3838     1  0.0000000  0.6508444  3
   3831   3828   3837   3839     1  0.0000000  0.6508444  3
   3831   3828   3837   3841     1  0.0000000  0.6508444  3
   3832   3831   3828   3837     1  0.0000000  0.6508444  3
   3832   3831   3834   3840     1  0.0000000  1.0460000  1
   3832   3831   3834   3840     1  0.0000000  0.0000000  3
   3832   3831   3834   3835     1  0.0000000  0.6508444  3
   3832   3831   3834   3836     1  0.0000000  0.6508444  3
   3833   3831   3828   3837     1  0.0000000  0.6508444  3
   3833   3831   3834   3840     1  0.0000000  1.0460000  1
   3833   3831   3834   3840     1  0.0000000  0.0000000  3
   3833   3831   3834   3835     1  0.0000000  0.6508444  3
   3833   3831   3834   3836     1  0.0000000  0.6508444  3
   3842   3845   3848   3849     1  0.0000000  0.6508444  3
   3842   3845   3848   3850     1  0.0000000  0.6508444  3
   3843   3842   3845   3848     1  0.0000000  0.6508444  3
   3843   3842   3845   3846     1  0.0000000  0.6508444  3
   3843   3842   3845   3847     1  0.0000000  0.6508444  3
   3843   3842   3851   3852     1  0.0000000  0.6508444  3
   3843   3842   3851   3853     1  0.0000000  0.6508444  3
   3843   3842   3851   3855     1  0.0000000  0.6508444  3
   3844   3842   3845   3848     1  0.0000000  0.6508444  3
   3844   3842   3845   3846     1  0.0000000  0.6508444  3
   3844   3842   3845   3847     1  0.0000000  0.6508444  3
   3844   3842   3851   3852     1  0.0000000  0.6508444  3
   3844   3842   3851   3853     1  0.0000000  0.6508444  3
   3844   3842   3851   3855     1  0.0000000  0.6508444  3
   3845   3842   3851   3852     1  0.0000000  0.6508444  3
   3845   3842   3851   3853     1  0.0000000  0.6508444  3
   3845   3842   3851   3855     1  0.0000000  0.6508444  3
   3846   3845   3848   3854     1  0.0000000  1.0460000  1
   3846   3845   3848   3854     1  0.0000000  0.0000000  3
   3846   3845   3848   3849     1  0.0000000  0.6508444  3
   3846   3845   3848   3850     1  0.0000000  0.6508444  3
   3846   3845   3842   3851     1  0.0000000  0.6508444  3
   3847   3845   3848   3854     1  0.0000000  1.0460000  1
   3847   3845   3848   3854     1  0.0000000  0.0000000  3
   3847   3845   3848   3849     1  0.0000000  0.6508444  3
   3847   3845   3848   3850     1  0.0000000  0.6508444  3
   3847   3845   3842   3851     1  0.0000000  0.6508444  3
   3856   3859   3862   3863     1  0.0000000  0.6508444  3
   3856   3859   3862   3864     1  0.0000000  0.6508444  3
   3857   3856   3859   3862     1  0.0000000  0.6508444  3
   3857   3856   3859   3860     1  0.0000000  0.6508444  3
   3857   3856   3859   3861     1  0.0000000  0.6508444  3
   3857   3856   3865   3866     1  0.0000000  0.6508444  3
   3857   3856   3865   3867     1  0.0000000  0.6508444  3
   3857   3856   3865   3869     1  0.0000000  0.6508444  3
   3858   3856   3859   3862     1  0.0000000  0.6508444  3
   3858   3856   3859   3860     1  0.0000000  0.6508444  3
   3858   3856   3859   3861     1  0.0000000  0.6508444  3
   3858   3856   3865   3866     1  0.0000000  0.6508444  3
   3858   3856   3865   3867     1  0.0000000  0.6508444  3
   3858   3856   3865   3869     1  0.0000000  0.6508444  3
   3859   3856   3865   3866     1  0.0000000  0.6508444  3
   3859   3856   3865   3867     1  0.0000000  0.6508444  3
   3859   3856   3865   3869     1  0.0000000  0.6508444  3
   3860   3859   3856   3865     1  0.0000000  0.6508444  3
   3860   3859   3862   3868     1  0.0000000  1.0460000  1
   3860   3859   3862   3868     1  0.0000000  0.0000000  3
   3860   3859   3862   3863     1  0.0000000  0.6508444  3
   3860   3859   3862   3864     1  0.0000000  0.6508444  3
   3861   3859   3856   3865     1  0.0000000  0.6508444  3
   3861   3859   3862   3868     1  0.0000000  1.0460000  1
   3861   3859   3862   3868     1  0.0000000  0.0000000  3
   3861   3859   3862   3863     1  0.0000000  0.6508444  3
   3861   3859   3862   3864     1  0.0000000  0.6508444  3
   3870   3873   3876   3877     1  0.0000000  0.6508444  3
   3870   3873   3876   3878     1  0.0000000  0.6508444  3
   3871   3870   3873   3876     1  0.0000000  0.6508444  3
   3871   3870   3873   3874     1  0.0000000  0.6508444  3
   3871   3870   3873   3875     1  0.0000000  0.6508444  3
   3871   3870   3879   3880     1  0.0000000  0.6508444  3
   3871   3870   3879   3881     1  0.0000000  0.6508444  3
   3871   3870   3879   3883     1  0.0000000  0.6508444  3
   3872   3870   3873   3876     1  0.0000000  0.6508444  3
   3872   3870   3873   3874     1  0.0000000  0.6508444  3
   3872   3870   3873   3875     1  0.0000000  0.6508444  3
   3872   3870   3879   3880     1  0.0000000  0.6508444  3
   3872   3870   3879   3881     1  0.0000000  0.6508444  3
   3872   3870   3879   3883     1  0.0000000  0.6508444  3
   3873   3870   3879   3880     1  0.0000000  0.6508444  3
   3873   3870   3879   3881     1  0.0000000  0.6508444  3
   3873   3870   3879   3883     1  0.0000000  0.6508444  3
   3874   3873   3876   3882     1  0.0000000  1.0460000  1
   3874   3873   3876   3882     1  0.0000000  0.0000000  3
   3874   3873   3876   3877     1  0.0000000  0.6508444  3
   3874   3873   3876   3878     1  0.0000000  0.6508444  3
   3874   3873   3870   3879     1  0.0000000  0.6508444  3
   3875   3873   3876   3882     1  0.0000000  1.0460000  1
   3875   3873   3876   3882     1  0.0000000  0.0000000  3
   3875   3873   3876   3877     1  0.0000000  0.6508444  3
   3875   3873   3876   3878     1  0.0000000  0.6508444  3
   3875   3873   3870   3879     1  0.0000000  0.6508444  3
   3884   3887   3890   3891     1  0.0000000  0.6508444  3
   3884   3887   3890   3892     1  0.0000000  0.6508444  3
   3885   3884   3887   3890     1  0.0000000  0.6508444  3
   3885   3884   3887   3888     1  0.0000000  0.6508444  3
   3885   3884   3887   3889     1  0.0000000  0.6508444  3
   3885   3884   3893   3894     1  0.0000000  0.6508444  3
   3885   3884   3893   3895     1  0.0000000  0.6508444  3
   3885   3884   3893   3897     1  0.0000000  0.6508444  3
   3886   3884   3887   3890     1  0.0000000  0.6508444  3
   3886   3884   3887   3888     1  0.0000000  0.6508444  3
   3886   3884   3887   3889     1  0.0000000  0.6508444  3
   3886   3884   3893   3894     1  0.0000000  0.6508444  3
   3886   3884   3893   3895     1  0.0000000  0.6508444  3
   3886   3884   3893   3897     1  0.0000000  0.6508444  3
   3887   3884   3893   3894     1  0.0000000  0.6508444  3
   3887   3884   3893   3895     1  0.0000000  0.6508444  3
   3887   3884   3893   3897     1  0.0000000  0.6508444  3
   3888   3887   3884   3893     1  0.0000000  0.6508444  3
   3888   3887   3890   3896     1  0.0000000  1.0460000  1
   3888   3887   3890   3896     1  0.0000000  0.0000000  3
   3888   3887   3890   3891     1  0.0000000  0.6508444  3
   3888   3887   3890   3892     1  0.0000000  0.6508444  3
   3889   3887   3884   3893     1  0.0000000  0.6508444  3
   3889   3887   3890   3896     1  0.0000000  1.0460000  1
   3889   3887   3890   3896     1  0.0000000  0.0000000  3
   3889   3887   3890   3891     1  0.0000000  0.6508444  3
   3889   3887   3890   3892     1  0.0000000  0.6508444  3
   3898   3901   3904   3905     1  0.0000000  0.6508444  3
   3898   3901   3904   3906     1  0.0000000  0.6508444  3
   3899   3898   3901   3904     1  0.0000000  0.6508444  3
   3899   3898   3901   3902     1  0.0000000  0.6508444  3
   3899   3898   3901   3903     1  0.0000000  0.6508444  3
   3899   3898   3907   3908     1  0.0000000  0.6508444  3
   3899   3898   3907   3909     1  0.0000000  0.6508444  3
   3899   3898   3907   3911     1  0.0000000  0.6508444  3
   3900   3898   3901   3904     1  0.0000000  0.6508444  3
   3900   3898   3901   3902     1  0.0000000  0.6508444  3
   3900   3898   3901   3903     1  0.0000000  0.6508444  3
   3900   3898   3907   3908     1  0.0000000  0.6508444  3
   3900   3898   3907   3909     1  0.0000000  0.6508444  3
   3900   3898   3907   3911     1  0.0000000  0.6508444  3
   3901   3898   3907   3908     1  0.0000000  0.6508444  3
   3901   3898   3907   3909     1  0.0000000  0.6508444  3
   3901   3898   3907   3911     1  0.0000000  0.6508444  3
   3902   3901   3904   3910     1  0.0000000  1.0460000  1
   3902   3901   3904   3910     1  0.0000000  0.0000000  3
   3902   3901   3904   3905     1  0.0000000  0.6508444  3
   3902   3901   3904   3906     1  0.0000000  0.6508444  3
   3902   3901   3898   3907     1  0.0000000  0.6508444  3
   3903   3901   3904   3910     1  0.0000000  1.0460000  1
   3903   3901   3904   3910     1  0.0000000  0.0000000  3
   3903   3901   3904   3905     1  0.0000000  0.6508444  3
   3903   3901   3904   3906     1  0.0000000  0.6508444  3
   3903   3901   3898   3907     1  0.0000000  0.6508444  3
   3912   3915   3918   3919     1  0.0000000  0.6508444  3
   3912   3915   3918   3920     1  0.0000000  0.6508444  3
   3913   3912   3915   3918     1  0.0000000  0.6508444  3
   3913   3912   3915   3916     1  0.0000000  0.6508444  3
   3913   3912   3915   3917     1  0.0000000  0.6508444  3
   3913   3912   3921   3922     1  0.0000000  0.6508444  3
   3913   3912   3921   3923     1  0.0000000  0.6508444  3
   3913   3912   3921   3925     1  0.0000000  0.6508444  3
   3914   3912   3915   3918     1  0.0000000  0.6508444  3
   3914   3912   3915   3916     1  0.0000000  0.6508444  3
   3914   3912   3915   3917     1  0.0000000  0.6508444  3
   3914   3912   3921   3922     1  0.0000000  0.6508444  3
   3914   3912   3921   3923     1  0.0000000  0.6508444  3
   3914   3912   3921   3925     1  0.0000000  0.6508444  3
   3915   3912   3921   3922     1  0.0000000  0.6508444  3
   3915   3912   3921   3923     1  0.0000000  0.6508444  3
   3915   3912   3921   3925     1  0.0000000  0.6508444  3
   3916   3915   3912   3921     1  0.0000000  0.6508444  3
   3916   3915   3918   3924     1  0.0000000  1.0460000  1
   3916   3915   3918   3924     1  0.0000000  0.0000000  3
   3916   3915   3918   3919     1  0.0000000  0.6508444  3
   3916   3915   3918   3920     1  0.0000000  0.6508444  3
   3917   3915   3912   3921     1  0.0000000  0.6508444  3
   3917   3915   3918   3924     1  0.0000000  1.0460000  1
   3917   3915   3918   3924     1  0.0000000  0.0000000  3
   3917   3915   3918   3919     1  0.0000000  0.6508444  3
   3917   3915   3918   3920     1  0.0000000  0.6508444  3
   3926   3929   3932   3933     1  0.0000000  0.6508444  3
   3926   3929   3932   3934     1  0.0000000  0.6508444  3
   3927   3926   3929   3932     1  0.0000000  0.6508444  3
   3927   3926   3929   3930     1  0.0000000  0.6508444  3
   3927   3926   3929   3931     1  0.0000000  0.6508444  3
   3927   3926   3935   3936     1  0.0000000  0.6508444  3
   3927   3926   3935   3937     1  0.0000000  0.6508444  3
   3927   3926   3935   3939     1  0.0000000  0.6508444  3
   3928   3926   3929   3932     1  0.0000000  0.6508444  3
   3928   3926   3929   3930     1  0.0000000  0.6508444  3
   3928   3926   3929   3931     1  0.0000000  0.6508444  3
   3928   3926   3935   3936     1  0.0000000  0.6508444  3
   3928   3926   3935   3937     1  0.0000000  0.6508444  3
   3928   3926   3935   3939     1  0.0000000  0.6508444  3
   3929   3926   3935   3936     1  0.0000000  0.6508444  3
   3929   3926   3935   3937     1  0.0000000  0.6508444  3
   3929   3926   3935   3939     1  0.0000000  0.6508444  3
   3930   3929   3932   3938     1  0.0000000  1.0460000  1
   3930   3929   3932   3938     1  0.0000000  0.0000000  3
   3930   3929   3932   3933     1  0.0000000  0.6508444  3
   3930   3929   3932   3934     1  0.0000000  0.6508444  3
   3930   3929   3926   3935     1  0.0000000  0.6508444  3
   3931   3929   3932   3938     1  0.0000000  1.0460000  1
   3931   3929   3932   3938     1  0.0000000  0.0000000  3
   3931   3929   3932   3933     1  0.0000000  0.6508444  3
   3931   3929   3932   3934     1  0.0000000  0.6508444  3
   3931   3929   3926   3935     1  0.0000000  0.6508444  3
   3940   3943   3946   3947     1  0.0000000  0.6508444  3
   3940   3943   3946   3948     1  0.0000000  0.6508444  3
   3941   3940   3943   3946     1  0.0000000  0.6508444  3
   3941   3940   3943   3944     1  0.0000000  0.6508444  3
   3941   3940   3943   3945     1  0.0000000  0.6508444  3
   3941   3940   3949   3950     1  0.0000000  0.6508444  3
   3941   3940   3949   3951     1  0.0000000  0.6508444  3
   3941   3940   3949   3953     1  0.0000000  0.6508444  3
   3942   3940   3943   3946     1  0.0000000  0.6508444  3
   3942   3940   3943   3944     1  0.0000000  0.6508444  3
   3942   3940   3943   3945     1  0.0000000  0.6508444  3
   3942   3940   3949   3950     1  0.0000000  0.6508444  3
   3942   3940   3949   3951     1  0.0000000  0.6508444  3
   3942   3940   3949   3953     1  0.0000000  0.6508444  3
   3943   3940   3949   3950     1  0.0000000  0.6508444  3
   3943   3940   3949   3951     1  0.0000000  0.6508444  3
   3943   3940   3949   3953     1  0.0000000  0.6508444  3
   3944   3943   3940   3949     1  0.0000000  0.6508444  3
   3944   3943   3946   3952     1  0.0000000  1.0460000  1
   3944   3943   3946   3952     1  0.0000000  0.0000000  3
   3944   3943   3946   3947     1  0.0000000  0.6508444  3
   3944   3943   3946   3948     1  0.0000000  0.6508444  3
   3945   3943   3940   3949     1  0.0000000  0.6508444  3
   3945   3943   3946   3952     1  0.0000000  1.0460000  1
   3945   3943   3946   3952     1  0.0000000  0.0000000  3
   3945   3943   3946   3947     1  0.0000000  0.6508444  3
   3945   3943   3946   3948     1  0.0000000  0.6508444  3
   3954   3957   3960   3961     1  0.0000000  0.6508444  3
   3954   3957   3960   3962     1  0.0000000  0.6508444  3
   3955   3954   3957   3960     1  0.0000000  0.6508444  3
   3955   3954   3957   3958     1  0.0000000  0.6508444  3
   3955   3954   3957   3959     1  0.0000000  0.6508444  3
   3955   3954   3963   3964     1  0.0000000  0.6508444  3
   3955   3954   3963   3965     1  0.0000000  0.6508444  3
   3955   3954   3963   3967     1  0.0000000  0.6508444  3
   3956   3954   3957   3960     1  0.0000000  0.6508444  3
   3956   3954   3957   3958     1  0.0000000  0.6508444  3
   3956   3954   3957   3959     1  0.0000000  0.6508444  3
   3956   3954   3963   3964     1  0.0000000  0.6508444  3
   3956   3954   3963   3965     1  0.0000000  0.6508444  3
   3956   3954   3963   3967     1  0.0000000  0.6508444  3
   3957   3954   3963   3964     1  0.0000000  0.6508444  3
   3957   3954   3963   3965     1  0.0000000  0.6508444  3
   3957   3954   3963   3967     1  0.0000000  0.6508444  3
   3958   3957   3960   3966     1  0.0000000  1.0460000  1
   3958   3957   3960   3966     1  0.0000000  0.0000000  3
   3958   3957   3960   3961     1  0.0000000  0.6508444  3
   3958   3957   3960   3962     1  0.0000000  0.6508444  3
   3958   3957   3954   3963     1  0.0000000  0.6508444  3
   3959   3957   3960   3966     1  0.0000000  1.0460000  1
   3959   3957   3960   3966     1  0.0000000  0.0000000  3
   3959   3957   3960   3961     1  0.0000000  0.6508444  3
   3959   3957   3960   3962     1  0.0000000  0.6508444  3
   3959   3957   3954   3963     1  0.0000000  0.6508444  3
   3968   3971   3974   3975     1  0.0000000  0.6508444  3
   3968   3971   3974   3976     1  0.0000000  0.6508444  3
   3969   3968   3971   3974     1  0.0000000  0.6508444  3
   3969   3968   3971   3972     1  0.0000000  0.6508444  3
   3969   3968   3971   3973     1  0.0000000  0.6508444  3
   3969   3968   3977   3978     1  0.0000000  0.6508444  3
   3969   3968   3977   3979     1  0.0000000  0.6508444  3
   3969   3968   3977   3981     1  0.0000000  0.6508444  3
   3970   3968   3971   3974     1  0.0000000  0.6508444  3
   3970   3968   3971   3972     1  0.0000000  0.6508444  3
   3970   3968   3971   3973     1  0.0000000  0.6508444  3
   3970   3968   3977   3978     1  0.0000000  0.6508444  3
   3970   3968   3977   3979     1  0.0000000  0.6508444  3
   3970   3968   3977   3981     1  0.0000000  0.6508444  3
   3971   3968   3977   3978     1  0.0000000  0.6508444  3
   3971   3968   3977   3979     1  0.0000000  0.6508444  3
   3971   3968   3977   3981     1  0.0000000  0.6508444  3
   3972   3971   3968   3977     1  0.0000000  0.6508444  3
   3972   3971   3974   3980     1  0.0000000  1.0460000  1
   3972   3971   3974   3980     1  0.0000000  0.0000000  3
   3972   3971   3974   3975     1  0.0000000  0.6508444  3
   3972   3971   3974   3976     1  0.0000000  0.6508444  3
   3973   3971   3968   3977     1  0.0000000  0.6508444  3
   3973   3971   3974   3980     1  0.0000000  1.0460000  1
   3973   3971   3974   3980     1  0.0000000  0.0000000  3
   3973   3971   3974   3975     1  0.0000000  0.6508444  3
   3973   3971   3974   3976     1  0.0000000  0.6508444  3
   3982   3985   3988   3989     1  0.0000000  0.6508444  3
   3982   3985   3988   3990     1  0.0000000  0.6508444  3
   3983   3982   3985   3988     1  0.0000000  0.6508444  3
   3983   3982   3985   3986     1  0.0000000  0.6508444  3
   3983   3982   3985   3987     1  0.0000000  0.6508444  3
   3983   3982   3991   3992     1  0.0000000  0.6508444  3
   3983   3982   3991   3993     1  0.0000000  0.6508444  3
   3983   3982   3991   3995     1  0.0000000  0.6508444  3
   3984   3982   3985   3988     1  0.0000000  0.6508444  3
   3984   3982   3985   3986     1  0.0000000  0.6508444  3
   3984   3982   3985   3987     1  0.0000000  0.6508444  3
   3984   3982   3991   3992     1  0.0000000  0.6508444  3
   3984   3982   3991   3993     1  0.0000000  0.6508444  3
   3984   3982   3991   3995     1  0.0000000  0.6508444  3
   3985   3982   3991   3992     1  0.0000000  0.6508444  3
   3985   3982   3991   3993     1  0.0000000  0.6508444  3
   3985   3982   3991   3995     1  0.0000000  0.6508444  3
   3986   3985   3988   3994     1  0.0000000  1.0460000  1
   3986   3985   3988   3994     1  0.0000000  0.0000000  3
   3986   3985   3988   3989     1  0.0000000  0.6508444  3
   3986   3985   3988   3990     1  0.0000000  0.6508444  3
   3986   3985   3982   3991     1  0.0000000  0.6508444  3
   3987   3985   3988   3994     1  0.0000000  1.0460000  1
   3987   3985   3988   3994     1  0.0000000  0.0000000  3
   3987   3985   3988   3989     1  0.0000000  0.6508444  3
   3987   3985   3988   3990     1  0.0000000  0.6508444  3
   3987   3985   3982   3991     1  0.0000000  0.6508444  3
   3996   3999   4002   4003     1  0.0000000  0.6508444  3
   3996   3999   4002   4004     1  0.0000000  0.6508444  3
   3997   3996   3999   4002     1  0.0000000  0.6508444  3
   3997   3996   3999   4000     1  0.0000000  0.6508444  3
   3997   3996   3999   4001     1  0.0000000  0.6508444  3
   3997   3996   4005   4006     1  0.0000000  0.6508444  3
   3997   3996   4005   4007     1  0.0000000  0.6508444  3
   3997   3996   4005   4009     1  0.0000000  0.6508444  3
   3998   3996   3999   4002     1  0.0000000  0.6508444  3
   3998   3996   3999   4000     1  0.0000000  0.6508444  3
   3998   3996   3999   4001     1  0.0000000  0.6508444  3
   3998   3996   4005   4006     1  0.0000000  0.6508444  3
   3998   3996   4005   4007     1  0.0000000  0.6508444  3
   3998   3996   4005   4009     1  0.0000000  0.6508444  3
   3999   3996   4005   4006     1  0.0000000  0.6508444  3
   3999   3996   4005   4007     1  0.0000000  0.6508444  3
   3999   3996   4005   4009     1  0.0000000  0.6508444  3
   4000   3999   3996   4005     1  0.0000000  0.6508444  3
   4000   3999   4002   4008     1  0.0000000  1.0460000  1
   4000   3999   4002   4008     1  0.0000000  0.0000000  3
   4000   3999   4002   4003     1  0.0000000  0.6508444  3
   4000   3999   4002   4004     1  0.0000000  0.6508444  3
   4001   3999   3996   4005     1  0.0000000  0.6508444  3
   4001   3999   4002   4008     1  0.0000000  1.0460000  1
   4001   3999   4002   4008     1  0.0000000  0.0000000  3
   4001   3999   4002   4003     1  0.0000000  0.6508444  3
   4001   3999   4002   4004     1  0.0000000  0.6508444  3
   4010   4013   4016   4017     1  0.0000000  0.6508444  3
   4010   4013   4016   4018     1  0.0000000  0.6508444  3
   4011   4010   4013   4016     1  0.0000000  0.6508444  3
   4011   4010   4013   4014     1  0.0000000  0.6508444  3
   4011   4010   4013   4015     1  0.0000000  0.6508444  3
   4011   4010   4019   4020     1  0.0000000  0.6508444  3
   4011   4010   4019   4021     1  0.0000000  0.6508444  3
   4011   4010   4019   4023     1  0.0000000  0.6508444  3
   4012   4010   4013   4016     1  0.0000000  0.6508444  3
   4012   4010   4013   4014     1  0.0000000  0.6508444  3
   4012   4010   4013   4015     1  0.0000000  0.6508444  3
   4012   4010   4019   4020     1  0.0000000  0.6508444  3
   4012   4010   4019   4021     1  0.0000000  0.6508444  3
   4012   4010   4019   4023     1  0.0000000  0.6508444  3
   4013   4010   4019   4020     1  0.0000000  0.6508444  3
   4013   4010   4019   4021     1  0.0000000  0.6508444  3
   4013   4010   4019   4023     1  0.0000000  0.6508444  3
   4014   4013   4016   4022     1  0.0000000  1.0460000  1
   4014   4013   4016   4022     1  0.0000000  0.0000000  3
   4014   4013   4016   4017     1  0.0000000  0.6508444  3
   4014   4013   4016   4018     1  0.0000000  0.6508444  3
   4014   4013   4010   4019     1  0.0000000  0.6508444  3
   4015   4013   4016   4022     1  0.0000000  1.0460000  1
   4015   4013   4016   4022     1  0.0000000  0.0000000  3
   4015   4013   4016   4017     1  0.0000000  0.6508444  3
   4015   4013   4016   4018     1  0.0000000  0.6508444  3
   4015   4013   4010   4019     1  0.0000000  0.6508444  3
   4024   4027   4030   4031     1  0.0000000  0.6508444  3
   4024   4027   4030   4032     1  0.0000000  0.6508444  3
   4025   4024   4027   4030     1  0.0000000  0.6508444  3
   4025   4024   4027   4028     1  0.0000000  0.6508444  3
   4025   4024   4027   4029     1  0.0000000  0.6508444  3
   4025   4024   4033   4034     1  0.0000000  0.6508444  3
   4025   4024   4033   4035     1  0.0000000  0.6508444  3
   4025   4024   4033   4037     1  0.0000000  0.6508444  3
   4026   4024   4027   4030     1  0.0000000  0.6508444  3
   4026   4024   4027   4028     1  0.0000000  0.6508444  3
   4026   4024   4027   4029     1  0.0000000  0.6508444  3
   4026   4024   4033   4034     1  0.0000000  0.6508444  3
   4026   4024   4033   4035     1  0.0000000  0.6508444  3
   4026   4024   4033   4037     1  0.0000000  0.6508444  3
   4027   4024   4033   4034     1  0.0000000  0.6508444  3
   4027   4024   4033   4035     1  0.0000000  0.6508444  3
   4027   4024   4033   4037     1  0.0000000  0.6508444  3
   4028   4027   4024   4033     1  0.0000000  0.6508444  3
   4028   4027   4030   4036     1  0.0000000  1.0460000  1
   4028   4027   4030   4036     1  0.0000000  0.0000000  3
   4028   4027   4030   4031     1  0.0000000  0.6508444  3
   4028   4027   4030   4032     1  0.0000000  0.6508444  3
   4029   4027   4024   4033     1  0.0000000  0.6508444  3
   4029   4027   4030   4036     1  0.0000000  1.0460000  1
   4029   4027   4030   4036     1  0.0000000  0.0000000  3
   4029   4027   4030   4031     1  0.0000000  0.6508444  3
   4029   4027   4030   4032     1  0.0000000  0.6508444  3
   4038   4041   4044   4045     1  0.0000000  0.6508444  3
   4038   4041   4044   4046     1  0.0000000  0.6508444  3
   4039   4038   4041   4044     1  0.0000000  0.6508444  3
   4039   4038   4041   4042     1  0.0000000  0.6508444  3
   4039   4038   4041   4043     1  0.0000000  0.6508444  3
   4039   4038   4047   4048     1  0.0000000  0.6508444  3
   4039   4038   4047   4049     1  0.0000000  0.6508444  3
   4039   4038   4047   4051     1  0.0000000  0.6508444  3
   4040   4038   4041   4044     1  0.0000000  0.6508444  3
   4040   4038   4041   4042     1  0.0000000  0.6508444  3
   4040   4038   4041   4043     1  0.0000000  0.6508444  3
   4040   4038   4047   4048     1  0.0000000  0.6508444  3
   4040   4038   4047   4049     1  0.0000000  0.6508444  3
   4040   4038   4047   4051     1  0.0000000  0.6508444  3
   4041   4038   4047   4048     1  0.0000000  0.6508444  3
   4041   4038   4047   4049     1  0.0000000  0.6508444  3
   4041   4038   4047   4051     1  0.0000000  0.6508444  3
   4042   4041   4044   4050     1  0.0000000  1.0460000  1
   4042   4041   4044   4050     1  0.0000000  0.0000000  3
   4042   4041   4044   4045     1  0.0000000  0.6508444  3
   4042   4041   4044   4046     1  0.0000000  0.6508444  3
   4042   4041   4038   4047     1  0.0000000  0.6508444  3
   4043   4041   4044   4050     1  0.0000000  1.0460000  1
   4043   4041   4044   4050     1  0.0000000  0.0000000  3
   4043   4041   4044   4045     1  0.0000000  0.6508444  3
   4043   4041   4044   4046     1  0.0000000  0.6508444  3
   4043   4041   4038   4047     1  0.0000000  0.6508444  3
   4052   4055   4058   4059     1  0.0000000  0.6508444  3
   4052   4055   4058   4060     1  0.0000000  0.6508444  3
   4053   4052   4055   4058     1  0.0000000  0.6508444  3
   4053   4052   4055   4056     1  0.0000000  0.6508444  3
   4053   4052   4055   4057     1  0.0000000  0.6508444  3
   4053   4052   4061   4062     1  0.0000000  0.6508444  3
   4053   4052   4061   4063     1  0.0000000  0.6508444  3
   4053   4052   4061   4065     1  0.0000000  0.6508444  3
   4054   4052   4055   4058     1  0.0000000  0.6508444  3
   4054   4052   4055   4056     1  0.0000000  0.6508444  3
   4054   4052   4055   4057     1  0.0000000  0.6508444  3
   4054   4052   4061   4062     1  0.0000000  0.6508444  3
   4054   4052   4061   4063     1  0.0000000  0.6508444  3
   4054   4052   4061   4065     1  0.0000000  0.6508444  3
   4055   4052   4061   4062     1  0.0000000  0.6508444  3
   4055   4052   4061   4063     1  0.0000000  0.6508444  3
   4055   4052   4061   4065     1  0.0000000  0.6508444  3
   4056   4055   4052   4061     1  0.0000000  0.6508444  3
   4056   4055   4058   4064     1  0.0000000  1.0460000  1
   4056   4055   4058   4064     1  0.0000000  0.0000000  3
   4056   4055   4058   4059     1  0.0000000  0.6508444  3
   4056   4055   4058   4060     1  0.0000000  0.6508444  3
   4057   4055   4052   4061     1  0.0000000  0.6508444  3
   4057   4055   4058   4064     1  0.0000000  1.0460000  1
   4057   4055   4058   4064     1  0.0000000  0.0000000  3
   4057   4055   4058   4059     1  0.0000000  0.6508444  3
   4057   4055   4058   4060     1  0.0000000  0.6508444  3
   4066   4069   4072   4073     1  0.0000000  0.6508444  3
   4066   4069   4072   4074     1  0.0000000  0.6508444  3
   4067   4066   4069   4072     1  0.0000000  0.6508444  3
   4067   4066   4069   4070     1  0.0000000  0.6508444  3
   4067   4066   4069   4071     1  0.0000000  0.6508444  3
   4067   4066   4075   4076     1  0.0000000  0.6508444  3
   4067   4066   4075   4077     1  0.0000000  0.6508444  3
   4067   4066   4075   4079     1  0.0000000  0.6508444  3
   4068   4066   4069   4072     1  0.0000000  0.6508444  3
   4068   4066   4069   4070     1  0.0000000  0.6508444  3
   4068   4066   4069   4071     1  0.0000000  0.6508444  3
   4068   4066   4075   4076     1  0.0000000  0.6508444  3
   4068   4066   4075   4077     1  0.0000000  0.6508444  3
   4068   4066   4075   4079     1  0.0000000  0.6508444  3
   4069   4066   4075   4076     1  0.0000000  0.6508444  3
   4069   4066   4075   4077     1  0.0000000  0.6508444  3
   4069   4066   4075   4079     1  0.0000000  0.6508444  3
   4070   4069   4072   4078     1  0.0000000  1.0460000  1
   4070   4069   4072   4078     1  0.0000000  0.0000000  3
   4070   4069   4072   4073     1  0.0000000  0.6508444  3
   4070   4069   4072   4074     1  0.0000000  0.6508444  3
   4070   4069   4066   4075     1  0.0000000  0.6508444  3
   4071   4069   4072   4078     1  0.0000000  1.0460000  1
   4071   4069   4072   4078     1  0.0000000  0.0000000  3
   4071   4069   4072   4073     1  0.0000000  0.6508444  3
   4071   4069   4072   4074     1  0.0000000  0.6508444  3
   4071   4069   4066   4075     1  0.0000000  0.6508444  3
   4080   4083   4086   4087     1  0.0000000  0.6508444  3
   4080   4083   4086   4088     1  0.0000000  0.6508444  3
   4081   4080   4083   4086     1  0.0000000  0.6508444  3
   4081   4080   4083   4084     1  0.0000000  0.6508444  3
   4081   4080   4083   4085     1  0.0000000  0.6508444  3
   4081   4080   4089   4090     1  0.0000000  0.6508444  3
   4081   4080   4089   4091     1  0.0000000  0.6508444  3
   4081   4080   4089   4093     1  0.0000000  0.6508444  3
   4082   4080   4083   4086     1  0.0000000  0.6508444  3
   4082   4080   4083   4084     1  0.0000000  0.6508444  3
   4082   4080   4083   4085     1  0.0000000  0.6508444  3
   4082   4080   4089   4090     1  0.0000000  0.6508444  3
   4082   4080   4089   4091     1  0.0000000  0.6508444  3
   4082   4080   4089   4093     1  0.0000000  0.6508444  3
   4083   4080   4089   4090     1  0.0000000  0.6508444  3
   4083   4080   4089   4091     1  0.0000000  0.6508444  3
   4083   4080   4089   4093     1  0.0000000  0.6508444  3
   4084   4083   4080   4089     1  0.0000000  0.6508444  3
   4084   4083   4086   4092     1  0.0000000  1.0460000  1
   4084   4083   4086   4092     1  0.0000000  0.0000000  3
   4084   4083   4086   4087     1  0.0000000  0.6508444  3
   4084   4083   4086   4088     1  0.0000000  0.6508444  3
   4085   4083   4080   4089     1  0.0000000  0.6508444  3
   4085   4083   4086   4092     1  0.0000000  1.0460000  1
   4085   4083   4086   4092     1  0.0000000  0.0000000  3
   4085   4083   4086   4087     1  0.0000000  0.6508444  3
   4085   4083   4086   4088     1  0.0000000  0.6508444  3
   4094   4097   4100   4101     1  0.0000000  0.6508444  3
   4094   4097   4100   4102     1  0.0000000  0.6508444  3
   4095   4094   4097   4100     1  0.0000000  0.6508444  3
   4095   4094   4097   4098     1  0.0000000  0.6508444  3
   4095   4094   4097   4099     1  0.0000000  0.6508444  3
   4095   4094   4103   4104     1  0.0000000  0.6508444  3
   4095   4094   4103   4105     1  0.0000000  0.6508444  3
   4095   4094   4103   4107     1  0.0000000  0.6508444  3
   4096   4094   4097   4100     1  0.0000000  0.6508444  3
   4096   4094   4097   4098     1  0.0000000  0.6508444  3
   4096   4094   4097   4099     1  0.0000000  0.6508444  3
   4096   4094   4103   4104     1  0.0000000  0.6508444  3
   4096   4094   4103   4105     1  0.0000000  0.6508444  3
   4096   4094   4103   4107     1  0.0000000  0.6508444  3
   4097   4094   4103   4104     1  0.0000000  0.6508444  3
   4097   4094   4103   4105     1  0.0000000  0.6508444  3
   4097   4094   4103   4107     1  0.0000000  0.6508444  3
   4098   4097   4100   4106     1  0.0000000  1.0460000  1
   4098   4097   4100   4106     1  0.0000000  0.0000000  3
   4098   4097   4100   4101     1  0.0000000  0.6508444  3
   4098   4097   4100   4102     1  0.0000000  0.6508444  3
   4098   4097   4094   4103     1  0.0000000  0.6508444  3
   4099   4097   4100   4106     1  0.0000000  1.0460000  1
   4099   4097   4100   4106     1  0.0000000  0.0000000  3
   4099   4097   4100   4101     1  0.0000000  0.6508444  3
   4099   4097   4100   4102     1  0.0000000  0.6508444  3
   4099   4097   4094   4103     1  0.0000000  0.6508444  3
   4108   4111   4114   4115     1  0.0000000  0.6508444  3
   4108   4111   4114   4116     1  0.0000000  0.6508444  3
   4109   4108   4111   4114     1  0.0000000  0.6508444  3
   4109   4108   4111   4112     1  0.0000000  0.6508444  3
   4109   4108   4111   4113     1  0.0000000  0.6508444  3
   4109   4108   4117   4118     1  0.0000000  0.6508444  3
   4109   4108   4117   4119     1  0.0000000  0.6508444  3
   4109   4108   4117   4121     1  0.0000000  0.6508444  3
   4110   4108   4111   4114     1  0.0000000  0.6508444  3
   4110   4108   4111   4112     1  0.0000000  0.6508444  3
   4110   4108   4111   4113     1  0.0000000  0.6508444  3
   4110   4108   4117   4118     1  0.0000000  0.6508444  3
   4110   4108   4117   4119     1  0.0000000  0.6508444  3
   4110   4108   4117   4121     1  0.0000000  0.6508444  3
   4111   4108   4117   4118     1  0.0000000  0.6508444  3
   4111   4108   4117   4119     1  0.0000000  0.6508444  3
   4111   4108   4117   4121     1  0.0000000  0.6508444  3
   4112   4111   4108   4117     1  0.0000000  0.6508444  3
   4112   4111   4114   4120     1  0.0000000  1.0460000  1
   4112   4111   4114   4120     1  0.0000000  0.0000000  3
   4112   4111   4114   4115     1  0.0000000  0.6508444  3
   4112   4111   4114   4116     1  0.0000000  0.6508444  3
   4113   4111   4108   4117     1  0.0000000  0.6508444  3
   4113   4111   4114   4120     1  0.0000000  1.0460000  1
   4113   4111   4114   4120     1  0.0000000  0.0000000  3
   4113   4111   4114   4115     1  0.0000000  0.6508444  3
   4113   4111   4114   4116     1  0.0000000  0.6508444  3
   4122   4125   4128   4129     1  0.0000000  0.6508444  3
   4122   4125   4128   4130     1  0.0000000  0.6508444  3
   4123   4122   4125   4128     1  0.0000000  0.6508444  3
   4123   4122   4125   4126     1  0.0000000  0.6508444  3
   4123   4122   4125   4127     1  0.0000000  0.6508444  3
   4123   4122   4131   4132     1  0.0000000  0.6508444  3
   4123   4122   4131   4133     1  0.0000000  0.6508444  3
   4123   4122   4131   4135     1  0.0000000  0.6508444  3
   4124   4122   4125   4128     1  0.0000000  0.6508444  3
   4124   4122   4125   4126     1  0.0000000  0.6508444  3
   4124   4122   4125   4127     1  0.0000000  0.6508444  3
   4124   4122   4131   4132     1  0.0000000  0.6508444  3
   4124   4122   4131   4133     1  0.0000000  0.6508444  3
   4124   4122   4131   4135     1  0.0000000  0.6508444  3
   4125   4122   4131   4132     1  0.0000000  0.6508444  3
   4125   4122   4131   4133     1  0.0000000  0.6508444  3
   4125   4122   4131   4135     1  0.0000000  0.6508444  3
   4126   4125   4128   4134     1  0.0000000  1.0460000  1
   4126   4125   4128   4134     1  0.0000000  0.0000000  3
   4126   4125   4128   4129     1  0.0000000  0.6508444  3
   4126   4125   4128   4130     1  0.0000000  0.6508444  3
   4126   4125   4122   4131     1  0.0000000  0.6508444  3
   4127   4125   4128   4134     1  0.0000000  1.0460000  1
   4127   4125   4128   4134     1  0.0000000  0.0000000  3
   4127   4125   4128   4129     1  0.0000000  0.6508444  3
   4127   4125   4128   4130     1  0.0000000  0.6508444  3
   4127   4125   4122   4131     1  0.0000000  0.6508444  3
   4136   4139   4142   4143     1  0.0000000  0.6508444  3
   4136   4139   4142   4144     1  0.0000000  0.6508444  3
   4137   4136   4139   4142     1  0.0000000  0.6508444  3
   4137   4136   4139   4140     1  0.0000000  0.6508444  3
   4137   4136   4139   4141     1  0.0000000  0.6508444  3
   4137   4136   4145   4146     1  0.0000000  0.6508444  3
   4137   4136   4145   4147     1  0.0000000  0.6508444  3
   4137   4136   4145   4149     1  0.0000000  0.6508444  3
   4138   4136   4139   4142     1  0.0000000  0.6508444  3
   4138   4136   4139   4140     1  0.0000000  0.6508444  3
   4138   4136   4139   4141     1  0.0000000  0.6508444  3
   4138   4136   4145   4146     1  0.0000000  0.6508444  3
   4138   4136   4145   4147     1  0.0000000  0.6508444  3
   4138   4136   4145   4149     1  0.0000000  0.6508444  3
   4139   4136   4145   4146     1  0.0000000  0.6508444  3
   4139   4136   4145   4147     1  0.0000000  0.6508444  3
   4139   4136   4145   4149     1  0.0000000  0.6508444  3
   4140   4139   4136   4145     1  0.0000000  0.6508444  3
   4140   4139   4142   4148     1  0.0000000  1.0460000  1
   4140   4139   4142   4148     1  0.0000000  0.0000000  3
   4140   4139   4142   4143     1  0.0000000  0.6508444  3
   4140   4139   4142   4144     1  0.0000000  0.6508444  3
   4141   4139   4136   4145     1  0.0000000  0.6508444  3
   4141   4139   4142   4148     1  0.0000000  1.0460000  1
   4141   4139   4142   4148     1  0.0000000  0.0000000  3
   4141   4139   4142   4143     1  0.0000000  0.6508444  3
   4141   4139   4142   4144     1  0.0000000  0.6508444  3
   4150   4153   4156   4157     1  0.0000000  0.6508444  3
   4150   4153   4156   4158     1  0.0000000  0.6508444  3
   4151   4150   4153   4156     1  0.0000000  0.6508444  3
   4151   4150   4153   4154     1  0.0000000  0.6508444  3
   4151   4150   4153   4155     1  0.0000000  0.6508444  3
   4151   4150   4159   4160     1  0.0000000  0.6508444  3
   4151   4150   4159   4161     1  0.0000000  0.6508444  3
   4151   4150   4159   4163     1  0.0000000  0.6508444  3
   4152   4150   4153   4156     1  0.0000000  0.6508444  3
   4152   4150   4153   4154     1  0.0000000  0.6508444  3
   4152   4150   4153   4155     1  0.0000000  0.6508444  3
   4152   4150   4159   4160     1  0.0000000  0.6508444  3
   4152   4150   4159   4161     1  0.0000000  0.6508444  3
   4152   4150   4159   4163     1  0.0000000  0.6508444  3
   4153   4150   4159   4160     1  0.0000000  0.6508444  3
   4153   4150   4159   4161     1  0.0000000  0.6508444  3
   4153   4150   4159   4163     1  0.0000000  0.6508444  3
   4154   4153   4156   4162     1  0.0000000  1.0460000  1
   4154   4153   4156   4162     1  0.0000000  0.0000000  3
   4154   4153   4156   4157     1  0.0000000  0.6508444  3
   4154   4153   4156   4158     1  0.0000000  0.6508444  3
   4154   4153   4150   4159     1  0.0000000  0.6508444  3
   4155   4153   4156   4162     1  0.0000000  1.0460000  1
   4155   4153   4156   4162     1  0.0000000  0.0000000  3
   4155   4153   4156   4157     1  0.0000000  0.6508444  3
   4155   4153   4156   4158     1  0.0000000  0.6508444  3
   4155   4153   4150   4159     1  0.0000000  0.6508444  3

;[ system ]
;; Name
;Generic title
;
;[ molecules ]
;; Compound       #mols
;system1              1
